 running on   48 total cores
 distrk:  each k-point on   48 cores,    1 groups
 distr:  one band on    6 cores,    8 groups
 using from now: INCAR     
 vasp.5.4.1 05Feb16 (build Feb 08 2018 09:21:51) complex                        
  
 POSCAR found :  5 types and     112 ions
 LDA part: xc-table for Pade appr. of Perdew
 POSCAR, INCAR and KPOINTS ok, starting setup
 WARNING: small aliasing (wrap around) errors must be expected
 FFT: planning ...
 WAVECAR not read
 entering main loop
       N       E                     dE             d eps       ncg     rms          rms(c)
DAV:   1     0.445473220288E+04    0.44547E+04   -0.24519E+05   760   0.116E+03
DAV:   2    -0.408602840065E+03   -0.48633E+04   -0.47638E+04   872   0.326E+02
DAV:   3    -0.968257154082E+03   -0.55965E+03   -0.55750E+03   816   0.119E+02
DAV:   4    -0.981397896961E+03   -0.13141E+02   -0.13099E+02   824   0.197E+01
DAV:   5    -0.981805761287E+03   -0.40786E+00   -0.40739E+00   832   0.314E+00    0.859E+01
DAV:   6    -0.864437331328E+03    0.11737E+03   -0.50845E+02   800   0.354E+01    0.399E+01
DAV:   7    -0.863764553151E+03    0.67278E+00   -0.17452E+01   912   0.641E+00    0.151E+01
DAV:   8    -0.863265170803E+03    0.49938E+00   -0.12827E+00   816   0.237E+00    0.610E+00
DAV:   9    -0.863120117724E+03    0.14505E+00   -0.44382E-01   832   0.155E+00    0.101E+00
DAV:  10    -0.863123156664E+03   -0.30389E-02   -0.11701E-01   800   0.715E-01    0.742E-01
DAV:  11    -0.863123686086E+03   -0.52942E-03   -0.17732E-02   792   0.262E-01    0.373E-01
DAV:  12    -0.863129990627E+03   -0.63045E-02   -0.83218E-03   776   0.237E-01    0.141E-01
DAV:  13    -0.863140593857E+03   -0.10603E-01   -0.53820E-03   824   0.235E-01    0.212E-01
DAV:  14    -0.863148331622E+03   -0.77378E-02   -0.48642E-03   800   0.177E-01    0.982E-02
DAV:  15    -0.863150967142E+03   -0.26355E-02   -0.14048E-03   824   0.962E-02    0.617E-02
DAV:  16    -0.863152217490E+03   -0.12503E-02   -0.27763E-04   800   0.335E-02    0.571E-02
DAV:  17    -0.863152500101E+03   -0.28261E-03   -0.11678E-04   808   0.244E-02    0.323E-02
DAV:  18    -0.863152858595E+03   -0.35849E-03   -0.55122E-05   784   0.136E-02    0.129E-02
DAV:  19    -0.863152939472E+03   -0.80877E-04   -0.12700E-05   776   0.845E-03    0.818E-03
DAV:  20    -0.863152957309E+03   -0.17837E-04   -0.10278E-05   800   0.765E-03    0.352E-03
DAV:  21    -0.863152970234E+03   -0.12925E-04   -0.23698E-06   568   0.358E-03    0.421E-03
DAV:  22    -0.863152972353E+03   -0.21188E-05   -0.78653E-07   528   0.196E-03    0.237E-03
DAV:  23    -0.863152972938E+03   -0.58563E-06   -0.50305E-07   520   0.166E-03
   1 F= -.86315297E+03 E0= -.86315297E+03  d E =-.863153E+03
 curvature:   0.00 expect dE= 0.000E+00 dE for cont linesearch  0.000E+00
 trial: gam= 0.00000 g(F)=  0.325E+02 g(S)=  0.000E+00 ort = 0.000E+00 (trialstep = 0.100E+01)
 search vector abs. value=  0.325E+02
 bond charge predicted
       N       E                     dE             d eps       ncg     rms          rms(c)
DAV:   1    -0.836261389750E+03    0.26892E+02   -0.27861E+03   712   0.716E+01    0.350E+01
DAV:   2    -0.868189342369E+03   -0.31928E+02   -0.37225E+02   848   0.200E+01    0.202E+01
DAV:   3    -0.860232160756E+03    0.79572E+01   -0.24010E+01   808   0.736E+00    0.128E+01
DAV:   4    -0.860450023803E+03   -0.21786E+00   -0.23584E+01   800   0.105E+01    0.123E+01
DAV:   5    -0.858746860818E+03    0.17032E+01   -0.13270E+01   808   0.325E+00    0.554E+00
DAV:   6    -0.858748270317E+03   -0.14095E-02   -0.98543E-01   792   0.147E+00    0.413E+00
DAV:   7    -0.858722711672E+03    0.25559E-01   -0.13910E+00   912   0.174E+00    0.300E+00
DAV:   8    -0.858640389369E+03    0.82322E-01   -0.46916E-01   824   0.914E-01    0.102E+00
DAV:   9    -0.858640143321E+03    0.24605E-03   -0.32636E-02   808   0.315E-01    0.791E-01
DAV:  10    -0.858637957841E+03    0.21855E-02   -0.44500E-03   808   0.122E-01    0.613E-01
DAV:  11    -0.858633624968E+03    0.43329E-02   -0.15529E-02   808   0.161E-01    0.196E-01
DAV:  12    -0.858633639028E+03   -0.14060E-04   -0.73773E-03   840   0.207E-01    0.177E-01
DAV:  13    -0.858634022651E+03   -0.38362E-03   -0.33844E-03   808   0.145E-01    0.104E-01
DAV:  14    -0.858634238845E+03   -0.21619E-03   -0.75647E-04   808   0.489E-02    0.913E-02
DAV:  15    -0.858634673135E+03   -0.43429E-03   -0.61916E-04   848   0.844E-02    0.441E-02
DAV:  16    -0.858635032887E+03   -0.35975E-03   -0.48394E-04   928   0.764E-02    0.497E-02
DAV:  17    -0.858635073723E+03   -0.40836E-04   -0.18908E-04   816   0.259E-02    0.494E-02
DAV:  18    -0.858635124064E+03   -0.50341E-04   -0.50946E-05   776   0.118E-02    0.237E-02
DAV:  19    -0.858635230691E+03   -0.10663E-03   -0.79926E-05   776   0.181E-02    0.159E-02
DAV:  20    -0.858635242877E+03   -0.12187E-04   -0.13623E-05   800   0.949E-03    0.102E-02
DAV:  21    -0.858635253812E+03   -0.10935E-04   -0.81952E-06   792   0.594E-03    0.683E-03
DAV:  22    -0.858635264358E+03   -0.10546E-04   -0.19562E-06   576   0.327E-03    0.489E-03
DAV:  23    -0.858635267956E+03   -0.35978E-05   -0.19135E-06   528   0.252E-03    0.280E-03
DAV:  24    -0.858635269120E+03   -0.11642E-05   -0.62997E-07   520   0.130E-03    0.174E-03
DAV:  25    -0.858635270345E+03   -0.12248E-05   -0.35564E-07   504   0.965E-04    0.809E-04
DAV:  26    -0.858635271226E+03   -0.88137E-06   -0.19146E-07   504   0.963E-04
   2 F= -.85863527E+03 E0= -.85863527E+03  d E =0.451770E+01
 trial-energy change:    4.517702  1 .order   -3.667989  -32.482765   25.146787
 step:   0.3659(harm=  0.5636)  dis= 0.24750  next Energy=  -868.694840 (dE=-0.554E+01)
 bond charge predicted
       N       E                     dE             d eps       ncg     rms          rms(c)
DAV:   1    -0.857274074708E+03    0.13612E+01   -0.14359E+03   704   0.544E+01    0.197E+01
DAV:   2    -0.869484504062E+03   -0.12210E+02   -0.13914E+02   824   0.139E+01    0.117E+01
DAV:   3    -0.868083959640E+03    0.14005E+01   -0.48312E+00   824   0.385E+00    0.747E+00
DAV:   4    -0.867771795613E+03    0.31216E+00   -0.33168E+00   800   0.290E+00    0.344E+00
DAV:   5    -0.867786921623E+03   -0.15126E-01   -0.37437E-01   952   0.125E+00    0.273E+00
DAV:   6    -0.867721209635E+03    0.65712E-01   -0.17964E-01   792   0.920E-01    0.543E-01
DAV:   7    -0.867725507639E+03   -0.42980E-02   -0.80403E-02   832   0.491E-01    0.328E-01
DAV:   8    -0.867725194529E+03    0.31311E-03   -0.39729E-03   800   0.142E-01    0.238E-01
DAV:   9    -0.867725533447E+03   -0.33892E-03   -0.22646E-03   776   0.125E-01    0.886E-02
DAV:  10    -0.867726762424E+03   -0.12290E-02   -0.21237E-03   816   0.157E-01    0.812E-02
DAV:  11    -0.867727442061E+03   -0.67964E-03   -0.14693E-03   816   0.877E-02    0.661E-02
DAV:  12    -0.867727763277E+03   -0.32122E-03   -0.13480E-04   792   0.227E-02    0.465E-02
DAV:  13    -0.867728497274E+03   -0.73400E-03   -0.35737E-04   792   0.532E-02    0.217E-02
DAV:  14    -0.867728761237E+03   -0.26396E-03   -0.17024E-04   832   0.307E-02    0.167E-02
DAV:  15    -0.867728817934E+03   -0.56697E-04   -0.59798E-05   816   0.156E-02    0.112E-02
DAV:  16    -0.867728858829E+03   -0.40895E-04   -0.65971E-06   768   0.472E-03    0.589E-03
DAV:  17    -0.867728922093E+03   -0.63264E-04   -0.89760E-06   712   0.552E-03    0.297E-03
DAV:  18    -0.867728937090E+03   -0.14997E-04   -0.21351E-06   600   0.354E-03    0.273E-03
DAV:  19    -0.867728942458E+03   -0.53686E-05   -0.83337E-07   512   0.232E-03    0.255E-03
DAV:  20    -0.867728947140E+03   -0.46818E-05   -0.84107E-07   496   0.216E-03    0.102E-03
DAV:  21    -0.867728948640E+03   -0.14995E-05   -0.66304E-07   520   0.188E-03    0.154E-03
DAV:  22    -0.867728948749E+03   -0.10971E-06   -0.15902E-07   520   0.762E-04
   3 F= -.86772895E+03 E0= -.86772895E+03  d E =-.457598E+01
 curvature:  -0.22 expect dE=-0.164E+01 dE for cont linesearch -0.927E-02
 trial: gam= 0.26166 g(F)=  0.734E+01 g(S)=  0.000E+00 ort =-0.116E+01 (trialstep = 0.873E+00)
 search vector abs. value=  0.896E+01
 bond charge predicted
       N       E                     dE             d eps       ncg     rms          rms(c)
DAV:   1    -0.866443154312E+03    0.12858E+01   -0.63626E+02   720   0.406E+01    0.133E+01
DAV:   2    -0.868519696843E+03   -0.20765E+01   -0.24583E+01   816   0.675E+00    0.574E+00
DAV:   3    -0.868348302989E+03    0.17139E+00   -0.50542E-01   824   0.131E+00    0.415E+00
DAV:   4    -0.868242589239E+03    0.10571E+00   -0.43349E-01   800   0.145E+00    0.928E-01
DAV:   5    -0.868242194351E+03    0.39489E-03   -0.12203E-01   840   0.664E-01    0.623E-01
DAV:   6    -0.868239656830E+03    0.25375E-02   -0.23944E-02   800   0.297E-01    0.324E-01
DAV:   7    -0.868238686802E+03    0.97003E-03   -0.18077E-03   896   0.145E-01    0.196E-01
DAV:   8    -0.868238515409E+03    0.17139E-03   -0.18532E-03   784   0.126E-01    0.828E-02
DAV:   9    -0.868238844804E+03   -0.32940E-03   -0.87058E-04   856   0.838E-02    0.471E-02
DAV:  10    -0.868239343766E+03   -0.49896E-03   -0.41688E-04   816   0.541E-02    0.341E-02
DAV:  11    -0.868239734773E+03   -0.39101E-03   -0.12766E-04   856   0.485E-02    0.269E-02
DAV:  12    -0.868239985665E+03   -0.25089E-03   -0.14419E-04   800   0.339E-02    0.118E-02
DAV:  13    -0.868240059766E+03   -0.74101E-04   -0.35071E-05   824   0.128E-02    0.117E-02
DAV:  14    -0.868240075859E+03   -0.16093E-04   -0.18386E-06   552   0.309E-03    0.909E-03
DAV:  15    -0.868240109665E+03   -0.33805E-04   -0.70820E-06   704   0.475E-03    0.346E-03
DAV:  16    -0.868240116421E+03   -0.67564E-05   -0.10235E-06   544   0.340E-03    0.321E-03
DAV:  17    -0.868240118708E+03   -0.22871E-05   -0.19724E-06   576   0.413E-03    0.146E-03
DAV:  18    -0.868240119125E+03   -0.41729E-06   -0.39863E-07   520   0.138E-03
   4 F= -.86824012E+03 E0= -.86824012E+03  d E =-.511170E+00
 trial-energy change:   -0.511170  1 .order   -0.511707   -6.144255    5.120842
 step:   0.4763(harm=  0.4763)  dis= 0.10675  next Energy=  -869.404561 (dE=-0.168E+01)
 bond charge predicted
       N       E                     dE             d eps       ncg     rms          rms(c)
DAV:   1    -0.869117253952E+03   -0.87714E+00   -0.13579E+02   704   0.180E+01    0.467E+00
DAV:   2    -0.869474374998E+03   -0.35712E+00   -0.41686E+00   824   0.287E+00    0.207E+00
DAV:   3    -0.869435348543E+03    0.39026E-01   -0.85959E-02   824   0.586E-01    0.138E+00
DAV:   4    -0.869416985882E+03    0.18363E-01   -0.72633E-02   800   0.568E-01    0.324E-01
DAV:   5    -0.869417066685E+03   -0.80803E-04   -0.19776E-02   848   0.270E-01    0.240E-01
DAV:   6    -0.869416578016E+03    0.48867E-03   -0.27008E-03   800   0.106E-01    0.147E-01
DAV:   7    -0.869416403472E+03    0.17454E-03   -0.47214E-04   880   0.745E-02    0.767E-02
DAV:   8    -0.869416484558E+03   -0.81086E-04   -0.36755E-04   800   0.631E-02    0.287E-02
DAV:   9    -0.869416605297E+03   -0.12074E-03   -0.17575E-04   840   0.340E-02    0.200E-02
DAV:  10    -0.869416735851E+03   -0.13055E-03   -0.34517E-05   792   0.178E-02    0.125E-02
DAV:  11    -0.869416877296E+03   -0.14144E-03   -0.44180E-05   776   0.247E-02    0.121E-02
DAV:  12    -0.869416931152E+03   -0.53857E-04   -0.40390E-05   784   0.159E-02    0.608E-03
DAV:  13    -0.869416956214E+03   -0.25061E-04   -0.74878E-06   792   0.654E-03    0.501E-03
DAV:  14    -0.869416963502E+03   -0.72877E-05   -0.11172E-06   536   0.244E-03    0.331E-03
DAV:  15    -0.869416971512E+03   -0.80105E-05   -0.11721E-06   512   0.235E-03    0.109E-03
DAV:  16    -0.869416973909E+03   -0.23967E-05   -0.41910E-07   520   0.166E-03    0.928E-04
DAV:  17    -0.869416974887E+03   -0.97870E-06   -0.29169E-07   504   0.183E-03
   5 F= -.86941697E+03 E0= -.86941697E+03  d E =-.168803E+01
 curvature:  -0.30 expect dE=-0.783E+00 dE for cont linesearch -0.589E-05
 trial: gam= 0.41848 g(F)=  0.258E+01 g(S)=  0.000E+00 ort =-0.132E-01 (trialstep = 0.794E+00)
 search vector abs. value=  0.414E+01
 bond charge predicted
       N       E                     dE             d eps       ncg     rms          rms(c)
DAV:   1    -0.869822122458E+03   -0.40515E+00   -0.29774E+02   704   0.292E+01    0.559E+00
DAV:   2    -0.870395502368E+03   -0.57338E+00   -0.74823E+00   824   0.430E+00    0.213E+00
DAV:   3    -0.870313058726E+03    0.82444E-01   -0.21970E-01   816   0.924E-01    0.130E+00
DAV:   4    -0.870275509476E+03    0.37549E-01   -0.16445E-01   808   0.831E-01    0.455E-01
DAV:   5    -0.870273492004E+03    0.20175E-02   -0.32825E-02   864   0.423E-01    0.314E-01
DAV:   6    -0.870272609950E+03    0.88205E-03   -0.91449E-03   808   0.209E-01    0.179E-01
DAV:   7    -0.870271942006E+03    0.66794E-03   -0.98604E-04   920   0.116E-01    0.947E-02
DAV:   8    -0.870271639892E+03    0.30211E-03   -0.58775E-04   864   0.112E-01    0.352E-02
DAV:   9    -0.870271804951E+03   -0.16506E-03   -0.55597E-04   872   0.828E-02    0.271E-02
DAV:  10    -0.870272036109E+03   -0.23116E-03   -0.16872E-04   816   0.436E-02    0.269E-02
DAV:  11    -0.870272142841E+03   -0.10673E-03   -0.36998E-05   832   0.200E-02    0.181E-02
DAV:  12    -0.870272272865E+03   -0.13002E-03   -0.26166E-05   752   0.181E-02    0.612E-03
DAV:  13    -0.870272319100E+03   -0.46235E-04   -0.16145E-05   808   0.112E-02    0.458E-03
DAV:  14    -0.870272345540E+03   -0.26440E-04   -0.93458E-06   784   0.730E-03    0.395E-03
DAV:  15    -0.870272356937E+03   -0.11397E-04   -0.16169E-06   528   0.272E-03    0.159E-03
DAV:  16    -0.870272363672E+03   -0.67350E-05   -0.71432E-07   512   0.169E-03    0.889E-04
DAV:  17    -0.870272367168E+03   -0.34955E-05   -0.41637E-07   520   0.154E-03    0.653E-04
DAV:  18    -0.870272368008E+03   -0.83968E-06   -0.23071E-07   520   0.125E-03
   6 F= -.87027237E+03 E0= -.87027237E+03  d E =-.855393E+00
 trial-energy change:   -0.855393  1 .order   -0.876589   -2.046740    0.293563
 step:   0.6893(harm=  0.6942)  dis= 0.06550  next Energy=  -870.291740 (dE=-0.875E+00)
 bond charge predicted
       N       E                     dE             d eps       ncg     rms          rms(c)
DAV:   1    -0.870286483125E+03   -0.14116E-01   -0.51817E+00   704   0.399E+00    0.729E-01
DAV:   2    -0.870293967777E+03   -0.74847E-02   -0.10850E-01   808   0.536E-01    0.274E-01
DAV:   3    -0.870292591119E+03    0.13767E-02   -0.35442E-03   824   0.133E-01    0.162E-01
DAV:   4    -0.870292086427E+03    0.50469E-03   -0.24155E-03   808   0.111E-01    0.599E-02
DAV:   5    -0.870292059391E+03    0.27035E-04   -0.46704E-04   840   0.513E-02    0.395E-02
DAV:   6    -0.870292040762E+03    0.18629E-04   -0.15553E-04   792   0.275E-02    0.213E-02
DAV:   7    -0.870292029980E+03    0.10782E-04   -0.14356E-05   840   0.138E-02    0.119E-02
DAV:   8    -0.870292025429E+03    0.45510E-05   -0.12586E-05   840   0.155E-02    0.422E-03
DAV:   9    -0.870292029367E+03   -0.39378E-05   -0.89339E-06   776   0.985E-03    0.399E-03
DAV:  10    -0.870292034056E+03   -0.46887E-05   -0.24755E-06   608   0.616E-03    0.268E-03
DAV:  11    -0.870292037381E+03   -0.33255E-05   -0.89628E-07   520   0.491E-03    0.149E-03
DAV:  12    -0.870292038926E+03   -0.15451E-05   -0.13156E-06   496   0.269E-03    0.155E-03
DAV:  13    -0.870292039269E+03   -0.34319E-06   -0.22154E-07   520   0.921E-04
   7 F= -.87029204E+03 E0= -.87029204E+03  d E =-.875064E+00
 curvature:  -0.56 expect dE=-0.243E+01 dE for cont linesearch -0.314E-05
 trial: gam= 1.58207 g(F)=  0.436E+01 g(S)=  0.000E+00 ort =-0.484E-02 (trialstep = 0.218E+00)
 search vector abs. value=  0.147E+02
 bond charge predicted
       N       E                     dE             d eps       ncg     rms          rms(c)
DAV:   1    -0.870908260142E+03   -0.61622E+00   -0.61053E+01   704   0.136E+01    0.192E+00
DAV:   2    -0.871024340226E+03   -0.11608E+00   -0.14569E+00   816   0.184E+00    0.102E+00
DAV:   3    -0.871015639309E+03    0.87009E-02   -0.38834E-02   816   0.361E-01    0.624E-01
DAV:   4    -0.871012356640E+03    0.32827E-02   -0.23993E-02   808   0.320E-01    0.200E-01
DAV:   5    -0.871012183349E+03    0.17329E-03   -0.40448E-03   832   0.145E-01    0.123E-01
DAV:   6    -0.871012186272E+03   -0.29227E-05   -0.20951E-03   800   0.912E-02    0.622E-02
DAV:   7    -0.871012194289E+03   -0.80176E-05   -0.16635E-04   864   0.366E-02    0.295E-02
DAV:   8    -0.871012233397E+03   -0.39108E-04   -0.58403E-05   784   0.270E-02    0.912E-03
DAV:   9    -0.871012285251E+03   -0.51853E-04   -0.33504E-05   848   0.226E-02    0.724E-03
DAV:  10    -0.871012333162E+03   -0.47911E-04   -0.16862E-05   840   0.166E-02    0.511E-03
DAV:  11    -0.871012358174E+03   -0.25012E-04   -0.88386E-06   800   0.857E-03    0.522E-03
DAV:  12    -0.871012363090E+03   -0.49160E-05   -0.93826E-07   552   0.193E-03    0.491E-03
DAV:  13    -0.871012372218E+03   -0.91282E-05   -0.11178E-06   520   0.175E-03    0.166E-03
DAV:  14    -0.871012380828E+03   -0.86095E-05   -0.93128E-07   528   0.285E-03    0.259E-03
DAV:  15    -0.871012382267E+03   -0.14390E-05   -0.82398E-07   520   0.236E-03    0.642E-04
DAV:  16    -0.871012383685E+03   -0.14181E-05   -0.14749E-07   488   0.794E-04    0.548E-04
DAV:  17    -0.871012384758E+03   -0.10725E-05   -0.91213E-08   512   0.511E-04    0.464E-04
DAV:  18    -0.871012385014E+03   -0.25640E-06   -0.64085E-08   520   0.528E-04
   8 F= -.87101239E+03 E0= -.87101239E+03  d E =-.720346E+00
 trial-energy change:   -0.720346  1 .order   -0.706809   -0.947483   -0.466135
 step:   0.3802(harm=  0.4282)  dis= 0.08236  next Energy=  -871.192343 (dE=-0.900E+00)
 bond charge predicted
       N       E                     dE             d eps       ncg     rms          rms(c)
DAV:   1    -0.871143712036E+03   -0.13133E+00   -0.34504E+01   704   0.100E+01    0.141E+00
DAV:   2    -0.871210348712E+03   -0.66637E-01   -0.81791E-01   816   0.137E+00    0.747E-01
DAV:   3    -0.871205307913E+03    0.50408E-02   -0.20178E-02   808   0.265E-01    0.451E-01
DAV:   4    -0.871203345961E+03    0.19620E-02   -0.11612E-02   808   0.221E-01    0.129E-01
DAV:   5    -0.871203319485E+03    0.26476E-04   -0.20477E-03   832   0.102E-01    0.807E-02
DAV:   6    -0.871203335975E+03   -0.16490E-04   -0.92696E-04   776   0.638E-02    0.461E-02
DAV:   7    -0.871203338317E+03   -0.23420E-05   -0.86706E-05   904   0.271E-02    0.233E-02
DAV:   8    -0.871203363165E+03   -0.24848E-04   -0.32510E-05   784   0.192E-02    0.752E-03
DAV:   9    -0.871203394169E+03   -0.31004E-04   -0.17354E-05   832   0.171E-02    0.549E-03
DAV:  10    -0.871203429359E+03   -0.35190E-04   -0.11460E-05   824   0.153E-02    0.337E-03
DAV:  11    -0.871203444786E+03   -0.15427E-04   -0.90486E-06   792   0.754E-03    0.535E-03
DAV:  12    -0.871203445975E+03   -0.11886E-05   -0.61279E-07   536   0.146E-03    0.537E-03
DAV:  13    -0.871203447025E+03   -0.10499E-05   -0.78912E-08   504   0.572E-04    0.477E-03
DAV:  14    -0.871203455172E+03   -0.81471E-05   -0.23727E-06   576   0.243E-03    0.286E-03
DAV:  15    -0.871203456585E+03   -0.14125E-05   -0.19599E-07   520   0.126E-03    0.214E-03
DAV:  16    -0.871203457974E+03   -0.13895E-05   -0.40974E-07   504   0.171E-03    0.121E-03
DAV:  17    -0.871203458022E+03   -0.48320E-07   -0.95982E-08   536   0.623E-04
   9 F= -.87120346E+03 E0= -.87120346E+03  d E =-.911419E+00
 curvature:  -0.69 expect dE=-0.120E+01 dE for cont linesearch -0.176E-02
 trial: gam= 0.17567 g(F)=  0.176E+01 g(S)=  0.000E+00 ort = 0.194E+00 (trialstep = 0.250E+00)
 search vector abs. value=  0.228E+01
 bond charge predicted
       N       E                     dE             d eps       ncg     rms          rms(c)
DAV:   1    -0.871485574101E+03   -0.28212E+00   -0.23399E+01   704   0.841E+00    0.166E+00
DAV:   2    -0.871531789127E+03   -0.46215E-01   -0.63168E-01   800   0.120E+00    0.645E-01
DAV:   3    -0.871522095276E+03    0.96939E-02   -0.17223E-02   808   0.289E-01    0.356E-01
DAV:   4    -0.871519305704E+03    0.27896E-02   -0.14441E-02   808   0.254E-01    0.114E-01
DAV:   5    -0.871519291181E+03    0.14523E-04   -0.28138E-03   816   0.113E-01    0.886E-02
DAV:   6    -0.871519194822E+03    0.96360E-04   -0.50162E-04   816   0.504E-02    0.480E-02
DAV:   7    -0.871519165590E+03    0.29232E-04   -0.71397E-05   832   0.246E-02    0.330E-02
DAV:   8    -0.871519171314E+03   -0.57235E-05   -0.71958E-05   792   0.267E-02    0.147E-02
DAV:   9    -0.871519195128E+03   -0.23814E-04   -0.29649E-05   888   0.201E-02    0.100E-02
DAV:  10    -0.871519231805E+03   -0.36677E-04   -0.29332E-05   784   0.172E-02    0.815E-03
DAV:  11    -0.871519253566E+03   -0.21761E-04   -0.77282E-06   824   0.929E-03    0.596E-03
DAV:  12    -0.871519264324E+03   -0.10759E-04   -0.22509E-06   576   0.443E-03    0.371E-03
DAV:  13    -0.871519270718E+03   -0.63940E-05   -0.11610E-06   536   0.292E-03    0.170E-03
DAV:  14    -0.871519273990E+03   -0.32717E-05   -0.42321E-07   512   0.193E-03    0.586E-04
DAV:  15    -0.871519275186E+03   -0.11960E-05   -0.29924E-07   512   0.133E-03    0.521E-04
DAV:  16    -0.871519275416E+03   -0.23001E-06   -0.94904E-08   520   0.705E-04
  10 F= -.87151928E+03 E0= -.87151928E+03  d E =-.315817E+00
 trial-energy change:   -0.315817  1 .order   -0.315574   -0.447914   -0.183234
 step:   0.4232(harm=  0.4232)  dis= 0.03815  next Energy=  -871.582457 (dE=-0.379E+00)
 bond charge predicted
       N       E                     dE             d eps       ncg     rms          rms(c)
DAV:   1    -0.871564911293E+03   -0.45636E-01   -0.11236E+01   704   0.578E+00    0.113E+00
DAV:   2    -0.871587881028E+03   -0.22970E-01   -0.31176E-01   808   0.828E-01    0.449E-01
DAV:   3    -0.871583219266E+03    0.46618E-02   -0.85324E-03   816   0.200E-01    0.251E-01
DAV:   4    -0.871581874732E+03    0.13445E-02   -0.69094E-03   808   0.173E-01    0.801E-02
DAV:   5    -0.871581865788E+03    0.89435E-05   -0.13667E-03   816   0.789E-02    0.598E-02
DAV:   6    -0.871581820194E+03    0.45595E-04   -0.24572E-04   808   0.359E-02    0.329E-02
DAV:   7    -0.871581809473E+03    0.10721E-04   -0.38142E-05   816   0.166E-02    0.239E-02
DAV:   8    -0.871581813947E+03   -0.44744E-05   -0.36519E-05   800   0.172E-02    0.105E-02
DAV:   9    -0.871581825366E+03   -0.11419E-04   -0.12654E-05   864   0.138E-02    0.704E-03
DAV:  10    -0.871581844214E+03   -0.18848E-04   -0.15784E-05   752   0.129E-02    0.562E-03
DAV:  11    -0.871581855388E+03   -0.11174E-04   -0.45233E-06   736   0.634E-03    0.398E-03
DAV:  12    -0.871581861531E+03   -0.61429E-05   -0.10684E-06   520   0.331E-03    0.233E-03
DAV:  13    -0.871581864994E+03   -0.34625E-05   -0.78001E-07   520   0.236E-03    0.114E-03
DAV:  14    -0.871581866377E+03   -0.13835E-05   -0.31359E-07   520   0.139E-03    0.881E-04
DAV:  15    -0.871581866867E+03   -0.49009E-06   -0.96614E-08   520   0.685E-04
  11 F= -.87158187E+03 E0= -.87158187E+03  d E =-.378409E+00
 curvature:  -0.27 expect dE=-0.257E+00 dE for cont linesearch -0.172E-04
 trial: gam= 0.52353 g(F)=  0.953E+00 g(S)=  0.000E+00 ort =-0.121E-01 (trialstep = 0.285E+00)
 search vector abs. value=  0.157E+01
 bond charge predicted
       N       E                     dE             d eps       ncg     rms          rms(c)
DAV:   1    -0.871740436205E+03   -0.15857E+00   -0.19276E+01   704   0.768E+00    0.114E+00
DAV:   2    -0.871781723075E+03   -0.41287E-01   -0.52808E-01   808   0.106E+00    0.613E-01
DAV:   3    -0.871775312523E+03    0.64106E-02   -0.13480E-02   824   0.234E-01    0.357E-01
DAV:   4    -0.871772921163E+03    0.23914E-02   -0.95826E-03   816   0.227E-01    0.108E-01
DAV:   5    -0.871772806255E+03    0.11491E-03   -0.26047E-03   848   0.112E-01    0.853E-02
DAV:   6    -0.871772687883E+03    0.11837E-03   -0.55324E-04   808   0.521E-02    0.479E-02
DAV:   7    -0.871772637770E+03    0.50113E-04   -0.78082E-05   920   0.305E-02    0.302E-02
DAV:   8    -0.871772628895E+03    0.88758E-05   -0.75274E-05   856   0.362E-02    0.136E-02
DAV:   9    -0.871772656395E+03   -0.27501E-04   -0.51285E-05   840   0.270E-02    0.116E-02
DAV:  10    -0.871772681032E+03   -0.24636E-04   -0.40248E-05   800   0.141E-02    0.102E-02
DAV:  11    -0.871772693670E+03   -0.12639E-04   -0.23009E-06   616   0.448E-03    0.725E-03
DAV:  12    -0.871772717702E+03   -0.24031E-04   -0.51494E-06   672   0.676E-03    0.269E-03
DAV:  13    -0.871772722821E+03   -0.51199E-05   -0.25484E-06   624   0.341E-03    0.135E-03
DAV:  14    -0.871772727385E+03   -0.45634E-05   -0.52193E-07   496   0.192E-03    0.106E-03
DAV:  15    -0.871772729344E+03   -0.19588E-05   -0.24365E-07   520   0.102E-03    0.827E-04
DAV:  16    -0.871772730442E+03   -0.10981E-05   -0.15308E-07   512   0.889E-04    0.485E-04
DAV:  17    -0.871772730799E+03   -0.35678E-06   -0.85393E-08   520   0.582E-04
  12 F= -.87177273E+03 E0= -.87177273E+03  d E =-.190864E+00
 trial-energy change:   -0.190864  1 .order   -0.189482   -0.269598   -0.109365
 step:   0.4639(harm=  0.4791)  dis= 0.02302  next Energy=  -871.807495 (dE=-0.226E+00)
 bond charge predicted
       N       E                     dE             d eps       ncg     rms          rms(c)
DAV:   1    -0.871794394181E+03   -0.21664E-01   -0.76811E+00   704   0.486E+00    0.736E-01
DAV:   2    -0.871811219125E+03   -0.16825E-01   -0.21763E-01   816   0.680E-01    0.396E-01
DAV:   3    -0.871808579221E+03    0.26399E-02   -0.57364E-03   824   0.152E-01    0.234E-01
DAV:   4    -0.871807617850E+03    0.96137E-03   -0.43425E-03   808   0.152E-01    0.752E-02
DAV:   5    -0.871807575257E+03    0.42594E-04   -0.11375E-03   864   0.716E-02    0.587E-02
DAV:   6    -0.871807519661E+03    0.55596E-04   -0.27851E-04   808   0.359E-02    0.305E-02
DAV:   7    -0.871807498631E+03    0.21030E-04   -0.44198E-05   904   0.220E-02    0.192E-02
DAV:   8    -0.871807496750E+03    0.18814E-05   -0.36472E-05   872   0.229E-02    0.101E-02
DAV:   9    -0.871807509074E+03   -0.12324E-04   -0.17465E-05   784   0.171E-02    0.664E-03
DAV:  10    -0.871807520171E+03   -0.11097E-04   -0.16184E-05   800   0.963E-03    0.604E-03
DAV:  11    -0.871807526457E+03   -0.62860E-05   -0.14888E-06   584   0.312E-03    0.442E-03
DAV:  12    -0.871807537026E+03   -0.10569E-04   -0.16315E-06   560   0.424E-03    0.220E-03
DAV:  13    -0.871807540348E+03   -0.33224E-05   -0.11383E-06   544   0.242E-03    0.791E-04
DAV:  14    -0.871807542152E+03   -0.18038E-05   -0.40081E-07   512   0.149E-03    0.750E-04
DAV:  15    -0.871807543060E+03   -0.90827E-06   -0.14336E-07   520   0.761E-04
  13 F= -.87180754E+03 E0= -.87180754E+03  d E =-.225676E+00
 curvature:  -0.39 expect dE=-0.125E+00 dE for cont linesearch -0.762E-08
 trial: gam= 0.22637 g(F)=  0.319E+00 g(S)=  0.000E+00 ort =-0.174E-03 (trialstep = 0.321E+00)
 search vector abs. value=  0.399E+00
 bond charge predicted
       N       E                     dE             d eps       ncg     rms          rms(c)
DAV:   1    -0.871869804818E+03   -0.62263E-01   -0.70739E+00   704   0.488E+00    0.803E-01
DAV:   2    -0.871882002128E+03   -0.12197E-01   -0.15804E-01   832   0.659E-01    0.331E-01
DAV:   3    -0.871880208144E+03    0.17940E-02   -0.39667E-03   824   0.146E-01    0.193E-01
DAV:   4    -0.871879597587E+03    0.61056E-03   -0.31637E-03   808   0.135E-01    0.514E-02
DAV:   5    -0.871879628346E+03   -0.30759E-04   -0.82298E-04   816   0.602E-02    0.569E-02
DAV:   6    -0.871879618651E+03    0.96947E-05   -0.14336E-04   816   0.253E-02    0.347E-02
DAV:   7    -0.871879612790E+03    0.58614E-05   -0.10077E-05   784   0.109E-02    0.211E-02
DAV:   8    -0.871879615167E+03   -0.23775E-05   -0.12195E-05   776   0.140E-02    0.566E-03
DAV:   9    -0.871879626250E+03   -0.11083E-04   -0.85675E-06   800   0.117E-02    0.379E-03
DAV:  10    -0.871879632242E+03   -0.59919E-05   -0.52946E-06   768   0.550E-03    0.444E-03
DAV:  11    -0.871879633154E+03   -0.91205E-06   -0.40649E-07   520   0.127E-03
  14 F= -.87187963E+03 E0= -.87187963E+03  d E =-.720901E-01
 trial-energy change:   -0.072090  1 .order   -0.071740   -0.102174   -0.041305
 step:   0.5264(harm=  0.5381)  dis= 0.01423  next Energy=  -871.892989 (dE=-0.854E-01)
 bond charge predicted
       N       E                     dE             d eps       ncg     rms          rms(c)
DAV:   1    -0.871888869709E+03   -0.92375E-02   -0.29239E+00   704   0.314E+00    0.516E-01
DAV:   2    -0.871893873720E+03   -0.50040E-02   -0.65273E-02   832   0.422E-01    0.215E-01
DAV:   3    -0.871893119070E+03    0.75465E-03   -0.16590E-03   832   0.945E-02    0.125E-01
DAV:   4    -0.871892871151E+03    0.24792E-03   -0.13323E-03   800   0.874E-02    0.333E-02
DAV:   5    -0.871892884972E+03   -0.13821E-04   -0.34436E-04   824   0.389E-02    0.368E-02
DAV:   6    -0.871892881966E+03    0.30062E-05   -0.60341E-05   808   0.165E-02    0.225E-02
DAV:   7    -0.871892880715E+03    0.12502E-05   -0.42301E-06   736   0.714E-03    0.136E-02
DAV:   8    -0.871892883872E+03   -0.31562E-05   -0.54720E-06   736   0.928E-03    0.362E-03
DAV:   9    -0.871892890642E+03   -0.67701E-05   -0.37372E-06   688   0.800E-03    0.254E-03
DAV:  10    -0.871892894011E+03   -0.33695E-05   -0.24756E-06   608   0.392E-03    0.295E-03
DAV:  11    -0.871892894542E+03   -0.53060E-06   -0.32723E-07   520   0.111E-03
  15 F= -.87189289E+03 E0= -.87189289E+03  d E =-.853515E-01
 curvature:  -0.34 expect dE=-0.947E-01 dE for cont linesearch -0.156E-05
 trial: gam= 0.89137 g(F)=  0.282E+00 g(S)=  0.000E+00 ort =-0.136E-02 (trialstep = 0.242E+00)
 search vector abs. value=  0.597E+00
 bond charge predicted
       N       E                     dE             d eps       ncg     rms          rms(c)
DAV:   1    -0.871941615650E+03   -0.48722E-01   -0.59961E+00   704   0.451E+00    0.561E-01
DAV:   2    -0.871952543595E+03   -0.10928E-01   -0.13317E-01   832   0.588E-01    0.272E-01
DAV:   3    -0.871951580320E+03    0.96327E-03   -0.29221E-03   832   0.112E-01    0.163E-01
DAV:   4    -0.871951235782E+03    0.34454E-03   -0.18593E-03   800   0.106E-01    0.488E-02
DAV:   5    -0.871951253314E+03   -0.17532E-04   -0.43910E-04   832   0.455E-02    0.365E-02
DAV:   6    -0.871951250789E+03    0.25249E-05   -0.11759E-04   800   0.237E-02    0.188E-02
DAV:   7    -0.871951248716E+03    0.20739E-05   -0.10505E-05   800   0.997E-03    0.109E-02
DAV:   8    -0.871951250330E+03   -0.16146E-05   -0.64949E-06   744   0.992E-03    0.360E-03
DAV:   9    -0.871951254858E+03   -0.45275E-05   -0.30887E-06   648   0.804E-03    0.249E-03
DAV:  10    -0.871951258260E+03   -0.34023E-05   -0.24319E-06   576   0.483E-03    0.236E-03
DAV:  11    -0.871951260577E+03   -0.23167E-05   -0.49695E-07   512   0.253E-03    0.167E-03
DAV:  12    -0.871951263075E+03   -0.24983E-05   -0.47407E-07   504   0.313E-03    0.781E-04
DAV:  13    -0.871951263681E+03   -0.60576E-06   -0.50526E-07   520   0.149E-03
  16 F= -.87195126E+03 E0= -.87195126E+03  d E =-.583691E-01
 trial-energy change:   -0.058369  1 .order   -0.058372   -0.067944   -0.048801
 step:   0.8583(harm=  0.8583)  dis= 0.03463  next Energy=  -872.013469 (dE=-0.121E+00)
 bond charge predicted
       N       E                     dE             d eps       ncg     rms          rms(c)
DAV:   1    -0.871949535797E+03    0.17273E-02   -0.38998E+01   704   0.115E+01    0.145E+00
DAV:   2    -0.872021528178E+03   -0.71992E-01   -0.87107E-01   832   0.150E+00    0.699E-01
DAV:   3    -0.872015193573E+03    0.63346E-02   -0.18856E-02   832   0.288E-01    0.422E-01
DAV:   4    -0.872012755310E+03    0.24383E-02   -0.11308E-02   808   0.262E-01    0.125E-01
DAV:   5    -0.872012856525E+03   -0.10121E-03   -0.27867E-03   832   0.118E-01    0.891E-02
DAV:   6    -0.872012846799E+03    0.97255E-05   -0.66280E-04   808   0.573E-02    0.479E-02
DAV:   7    -0.872012828621E+03    0.18178E-04   -0.56304E-05   800   0.247E-02    0.282E-02
DAV:   8    -0.872012830079E+03   -0.14577E-05   -0.40950E-05   800   0.257E-02    0.926E-03
DAV:   9    -0.872012846776E+03   -0.16698E-04   -0.21791E-05   880   0.189E-02    0.646E-03
DAV:  10    -0.872012863224E+03   -0.16448E-04   -0.12590E-05   800   0.113E-02    0.624E-03
DAV:  11    -0.872012877309E+03   -0.14085E-04   -0.13883E-06   536   0.856E-03    0.358E-03
DAV:  12    -0.872012888088E+03   -0.10779E-04   -0.43121E-06   704   0.776E-03    0.199E-03
DAV:  13    -0.872012890864E+03   -0.27757E-05   -0.27098E-06   600   0.346E-03    0.276E-03
DAV:  14    -0.872012891736E+03   -0.87239E-06   -0.25955E-07   520   0.100E-03
  17 F= -.87201289E+03 E0= -.87201289E+03  d E =-.119997E+00
 curvature:  -0.91 expect dE=-0.261E+00 dE for cont linesearch -0.690E-05
 trial: gam= 1.00825 g(F)=  0.286E+00 g(S)=  0.000E+00 ort =-0.213E-02 (trialstep = 0.245E+00)
 search vector abs. value=  0.888E+00
 bond charge predicted
       N       E                     dE             d eps       ncg     rms          rms(c)
DAV:   1    -0.872054288261E+03   -0.41397E-01   -0.94718E+00   704   0.573E+00    0.701E-01
DAV:   2    -0.872071770601E+03   -0.17482E-01   -0.20831E-01   800   0.741E-01    0.332E-01
DAV:   3    -0.872070164201E+03    0.16064E-02   -0.40207E-03   808   0.134E-01    0.199E-01
DAV:   4    -0.872069438748E+03    0.72545E-03   -0.32364E-03   808   0.146E-01    0.546E-02
DAV:   5    -0.872069478154E+03   -0.39406E-04   -0.92167E-04   808   0.608E-02    0.531E-02
DAV:   6    -0.872069454218E+03    0.23936E-04   -0.14854E-04   808   0.252E-02    0.302E-02
DAV:   7    -0.872069439856E+03    0.14362E-04   -0.16118E-05   800   0.134E-02    0.136E-02
DAV:   8    -0.872069434207E+03    0.56489E-05   -0.13484E-05   816   0.164E-02    0.486E-03
DAV:   9    -0.872069440486E+03   -0.62781E-05   -0.13980E-05   872   0.157E-02    0.390E-03
DAV:  10    -0.872069443929E+03   -0.34434E-05   -0.73500E-06   800   0.608E-03    0.553E-03
DAV:  11    -0.872069444528E+03   -0.59936E-06   -0.33438E-07   520   0.118E-03
  18 F= -.87206944E+03 E0= -.87206944E+03  d E =-.565528E-01
 trial-energy change:   -0.056553  1 .order   -0.056578   -0.069645   -0.043512
 step:   0.6535(harm=  0.6535)  dis= 0.03286  next Energy=  -872.105693 (dE=-0.928E-01)
 bond charge predicted
       N       E                     dE             d eps       ncg     rms          rms(c)
DAV:   1    -0.872062930156E+03    0.65138E-02   -0.26261E+01   704   0.954E+00    0.117E+00
DAV:   2    -0.872111953881E+03   -0.49024E-01   -0.58091E-01   800   0.123E+00    0.553E-01
DAV:   3    -0.872107457787E+03    0.44961E-02   -0.11169E-02   816   0.222E-01    0.331E-01
DAV:   4    -0.872105357055E+03    0.21007E-02   -0.86579E-03   808   0.239E-01    0.889E-02
DAV:   5    -0.872105465308E+03   -0.10825E-03   -0.25184E-03   808   0.101E-01    0.864E-02
DAV:   6    -0.872105404339E+03    0.60970E-04   -0.39520E-04   808   0.415E-02    0.500E-02
DAV:   7    -0.872105367964E+03    0.36374E-04   -0.38856E-05   816   0.218E-02    0.234E-02
DAV:   8    -0.872105354242E+03    0.13722E-04   -0.38208E-05   840   0.281E-02    0.800E-03
DAV:   9    -0.872105373777E+03   -0.19535E-04   -0.41735E-05   920   0.263E-02    0.707E-03
DAV:  10    -0.872105384281E+03   -0.10504E-04   -0.21240E-05   808   0.106E-02    0.961E-03
DAV:  11    -0.872105385762E+03   -0.14804E-05   -0.11642E-06   544   0.215E-03    0.848E-03
DAV:  12    -0.872105393800E+03   -0.80383E-05   -0.36004E-06   672   0.361E-03    0.336E-03
DAV:  13    -0.872105400601E+03   -0.68012E-05   -0.13968E-06   528   0.419E-03    0.318E-03
DAV:  14    -0.872105403939E+03   -0.33383E-05   -0.16044E-06   536   0.374E-03    0.137E-03
DAV:  15    -0.872105404497E+03   -0.55732E-06   -0.55481E-07   520   0.146E-03
  19 F= -.87210540E+03 E0= -.87210540E+03  d E =-.925128E-01
 curvature:  -1.02 expect dE=-0.231E+00 dE for cont linesearch -0.213E-05
 trial: gam= 0.80625 g(F)=  0.226E+00 g(S)=  0.000E+00 ort =-0.136E-02 (trialstep = 0.327E+00)
 search vector abs. value=  0.801E+00
 bond charge predicted
       N       E                     dE             d eps       ncg     rms          rms(c)
DAV:   1    -0.872132233157E+03   -0.26829E-01   -0.14365E+01   704   0.713E+00    0.916E-01
DAV:   2    -0.872159384937E+03   -0.27152E-01   -0.32871E-01   800   0.953E-01    0.441E-01
DAV:   3    -0.872156765856E+03    0.26191E-02   -0.68518E-03   816   0.173E-01    0.266E-01
DAV:   4    -0.872155501817E+03    0.12640E-02   -0.54655E-03   808   0.176E-01    0.732E-02
DAV:   5    -0.872155510702E+03   -0.88849E-05   -0.14822E-03   832   0.827E-02    0.684E-02
DAV:   6    -0.872155461138E+03    0.49564E-04   -0.36646E-04   808   0.416E-02    0.384E-02
DAV:   7    -0.872155426502E+03    0.34636E-04   -0.35675E-05   880   0.231E-02    0.184E-02
DAV:   8    -0.872155409325E+03    0.17178E-04   -0.30340E-05   856   0.266E-02    0.682E-03
DAV:   9    -0.872155419264E+03   -0.99397E-05   -0.29587E-05   848   0.196E-02    0.611E-03
DAV:  10    -0.872155428407E+03   -0.91429E-05   -0.11909E-05   800   0.887E-03    0.651E-03
DAV:  11    -0.872155430009E+03   -0.16013E-05   -0.69939E-07   528   0.184E-03    0.522E-03
DAV:  12    -0.872155434705E+03   -0.46967E-05   -0.20119E-06   560   0.301E-03    0.228E-03
DAV:  13    -0.872155436697E+03   -0.19919E-05   -0.51022E-07   520   0.258E-03    0.220E-03
DAV:  14    -0.872155437596E+03   -0.89861E-06   -0.15900E-06   576   0.312E-03
  20 F= -.87215544E+03 E0= -.87215544E+03  d E =-.500331E-01
 trial-energy change:   -0.050033  1 .order   -0.050083   -0.073410   -0.026756
 step:   0.5143(harm=  0.5143)  dis= 0.02324  next Energy=  -872.163160 (dE=-0.578E-01)
 bond charge predicted
       N       E                     dE             d eps       ncg     rms          rms(c)
DAV:   1    -0.872155433163E+03    0.35345E-05   -0.47269E+00   704   0.407E+00    0.524E-01
DAV:   2    -0.872164376993E+03   -0.89438E-02   -0.10873E-01   800   0.547E-01    0.253E-01
DAV:   3    -0.872163540625E+03    0.83637E-03   -0.22877E-03   816   0.990E-02    0.154E-01
DAV:   4    -0.872163134230E+03    0.40639E-03   -0.18881E-03   808   0.102E-01    0.434E-02
DAV:   5    -0.872163135349E+03   -0.11184E-05   -0.49315E-04   832   0.473E-02    0.403E-02
DAV:   6    -0.872163117928E+03    0.17421E-04   -0.13002E-04   808   0.245E-02    0.220E-02
DAV:   7    -0.872163107082E+03    0.10846E-04   -0.13523E-05   824   0.135E-02    0.106E-02
DAV:   8    -0.872163101840E+03    0.52421E-05   -0.10251E-05   832   0.153E-02    0.422E-03
DAV:   9    -0.872163105232E+03   -0.33921E-05   -0.94122E-06   800   0.112E-02    0.343E-03
DAV:  10    -0.872163108405E+03   -0.31725E-05   -0.38263E-06   688   0.523E-03    0.357E-03
DAV:  11    -0.872163109034E+03   -0.62914E-06   -0.32805E-07   520   0.128E-03
  21 F= -.87216311E+03 E0= -.87216311E+03  d E =-.577045E-01
 curvature:  -0.92 expect dE=-0.144E+00 dE for cont linesearch -0.146E-06
 trial: gam= 0.69251 g(F)=  0.157E+00 g(S)=  0.000E+00 ort = 0.357E-03 (trialstep = 0.364E+00)
 search vector abs. value=  0.542E+00
 bond charge predicted
       N       E                     dE             d eps       ncg     rms          rms(c)
DAV:   1    -0.872193948653E+03   -0.30840E-01   -0.11120E+01   704   0.632E+00    0.737E-01
DAV:   2    -0.872213667180E+03   -0.19719E-01   -0.23326E-01   784   0.822E-01    0.379E-01
DAV:   3    -0.872212055144E+03    0.16120E-02   -0.41875E-03   808   0.143E-01    0.233E-01
DAV:   4    -0.872211520738E+03    0.53441E-03   -0.52268E-03   792   0.185E-01    0.675E-02
DAV:   5    -0.872211569001E+03   -0.48263E-04   -0.12860E-03   800   0.687E-02    0.701E-02
DAV:   6    -0.872211534244E+03    0.34757E-04   -0.23633E-04   808   0.306E-02    0.369E-02
DAV:   7    -0.872211520634E+03    0.13610E-04   -0.60772E-05   792   0.182E-02    0.148E-02
DAV:   8    -0.872211522588E+03   -0.19539E-05   -0.19609E-05   808   0.130E-02    0.654E-03
DAV:   9    -0.872211524634E+03   -0.20462E-05   -0.73781E-06   776   0.807E-03    0.463E-03
DAV:  10    -0.872211525745E+03   -0.11111E-05   -0.14087E-06   544   0.262E-03    0.325E-03
DAV:  11    -0.872211528460E+03   -0.27147E-05   -0.11168E-06   504   0.407E-03    0.169E-03
DAV:  12    -0.872211531271E+03   -0.28115E-05   -0.11320E-06   520   0.435E-03    0.247E-03
DAV:  13    -0.872211532733E+03   -0.14617E-05   -0.12756E-06   504   0.400E-03    0.868E-04
DAV:  14    -0.872211533222E+03   -0.48937E-06   -0.41449E-07   520   0.148E-03
  22 F= -.87221153E+03 E0= -.87221153E+03  d E =-.484242E-01
 trial-energy change:   -0.048424  1 .order   -0.048428   -0.057476   -0.039380
 step:   1.1573(harm=  1.1573)  dis= 0.03529  next Energy=  -872.254387 (dE=-0.913E-01)
 bond charge predicted
       N       E                     dE             d eps       ncg     rms          rms(c)
DAV:   1    -0.872170584419E+03    0.40948E-01   -0.52643E+01   704   0.138E+01    0.160E+00
DAV:   2    -0.872264672295E+03   -0.94088E-01   -0.11066E+00   784   0.180E+00    0.825E-01
DAV:   3    -0.872256941245E+03    0.77311E-02   -0.19875E-02   816   0.310E-01    0.505E-01
DAV:   4    -0.872254111467E+03    0.28298E-02   -0.23464E-02   808   0.395E-01    0.140E-01
DAV:   5    -0.872254360271E+03   -0.24880E-03   -0.58501E-03   792   0.148E-01    0.146E-01
DAV:   6    -0.872254218828E+03    0.14144E-03   -0.99643E-04   808   0.637E-02    0.794E-02
DAV:   7    -0.872254158600E+03    0.60228E-04   -0.25433E-04   792   0.377E-02    0.322E-02
DAV:   8    -0.872254168578E+03   -0.99784E-05   -0.86644E-05   824   0.279E-02    0.131E-02
DAV:   9    -0.872254179215E+03   -0.10637E-04   -0.34271E-05   816   0.176E-02    0.964E-03
DAV:  10    -0.872254184683E+03   -0.54676E-05   -0.69138E-06   784   0.571E-03    0.683E-03
DAV:  11    -0.872254195546E+03   -0.10863E-04   -0.30781E-06   632   0.750E-03    0.359E-03
DAV:  12    -0.872254209496E+03   -0.13951E-04   -0.47750E-06   696   0.102E-02    0.483E-03
DAV:  13    -0.872254217287E+03   -0.77910E-05   -0.58766E-06   704   0.834E-03    0.210E-03
DAV:  14    -0.872254219053E+03   -0.17656E-05   -0.18560E-06   544   0.281E-03    0.194E-03
DAV:  15    -0.872254221239E+03   -0.21860E-05   -0.29739E-07   480   0.182E-03    0.694E-04
DAV:  16    -0.872254222442E+03   -0.12029E-05   -0.28368E-07   512   0.969E-04    0.584E-04
DAV:  17    -0.872254222739E+03   -0.29772E-06   -0.43061E-08   512   0.527E-04
  23 F= -.87225422E+03 E0= -.87225422E+03  d E =-.911137E-01
 curvature:  -1.99 expect dE=-0.443E+00 dE for cont linesearch -0.225E-05
 trial: gam= 1.41935 g(F)=  0.223E+00 g(S)=  0.000E+00 ort =-0.783E-03 (trialstep = 0.216E+00)
 search vector abs. value=  0.131E+01
 bond charge predicted
       N       E                     dE             d eps       ncg     rms          rms(c)
DAV:   1    -0.872278885478E+03   -0.24663E-01   -0.89485E+00   704   0.572E+00    0.667E-01
DAV:   2    -0.872294468612E+03   -0.15583E-01   -0.18760E-01   792   0.755E-01    0.340E-01
DAV:   3    -0.872293119512E+03    0.13491E-02   -0.37869E-03   816   0.140E-01    0.207E-01
DAV:   4    -0.872292562230E+03    0.55728E-03   -0.38420E-03   792   0.167E-01    0.612E-02
DAV:   5    -0.872292595380E+03   -0.33149E-04   -0.10862E-03   824   0.701E-02    0.640E-02
DAV:   6    -0.872292567224E+03    0.28156E-04   -0.17520E-04   824   0.282E-02    0.417E-02
DAV:   7    -0.872292540657E+03    0.26566E-04   -0.39884E-05   792   0.203E-02    0.173E-02
DAV:   8    -0.872292531965E+03    0.86923E-05   -0.28749E-05   896   0.227E-02    0.682E-03
DAV:   9    -0.872292533092E+03   -0.11272E-05   -0.22651E-05   936   0.186E-02    0.680E-03
DAV:  10    -0.872292533943E+03   -0.85072E-06   -0.84171E-06   800   0.645E-03
  24 F= -.87229253E+03 E0= -.87229253E+03  d E =-.383112E-01
 trial-energy change:   -0.038311  1 .order   -0.038388   -0.047857   -0.028919
 step:   0.5458(harm=  0.5458)  dis= 0.02443  next Energy=  -872.314692 (dE=-0.605E-01)
 bond charge predicted
       N       E                     dE             d eps       ncg     rms          rms(c)
DAV:   1    -0.872282799530E+03    0.97336E-02   -0.20851E+01   704   0.875E+00    0.102E+00
DAV:   2    -0.872319030202E+03   -0.36231E-01   -0.43682E-01   792   0.115E+00    0.519E-01
DAV:   3    -0.872315851479E+03    0.31787E-02   -0.89036E-03   816   0.214E-01    0.316E-01
DAV:   4    -0.872314442455E+03    0.14090E-02   -0.88598E-03   808   0.255E-01    0.931E-02
DAV:   5    -0.872314518460E+03   -0.76005E-04   -0.25043E-03   808   0.108E-01    0.969E-02
DAV:   6    -0.872314452347E+03    0.66113E-04   -0.41503E-04   816   0.437E-02    0.630E-02
DAV:   7    -0.872314391815E+03    0.60532E-04   -0.88294E-05   792   0.312E-02    0.262E-02
DAV:   8    -0.872314372271E+03    0.19544E-04   -0.66847E-05   912   0.358E-02    0.106E-02
DAV:   9    -0.872314377488E+03   -0.52162E-05   -0.56530E-05   976   0.302E-02    0.106E-02
DAV:  10    -0.872314380856E+03   -0.33685E-05   -0.22768E-05   808   0.105E-02    0.994E-03
DAV:  11    -0.872314382779E+03   -0.19230E-05   -0.21112E-06   520   0.540E-03    0.580E-03
DAV:  12    -0.872314391151E+03   -0.83716E-05   -0.12490E-05   784   0.162E-02    0.513E-03
DAV:  13    -0.872314392328E+03   -0.11770E-05   -0.70837E-06   744   0.677E-03    0.290E-03
DAV:  14    -0.872314393104E+03   -0.77648E-06   -0.15225E-06   512   0.296E-03
  25 F= -.87231439E+03 E0= -.87231439E+03  d E =-.601704E-01
 curvature:  -1.62 expect dE=-0.267E+00 dE for cont linesearch -0.480E-06
 trial: gam= 0.74007 g(F)=  0.165E+00 g(S)=  0.000E+00 ort =-0.624E-03 (trialstep = 0.282E+00)
 search vector abs. value=  0.883E+00
 bond charge predicted
       N       E                     dE             d eps       ncg     rms          rms(c)
DAV:   1    -0.872336882131E+03   -0.22490E-01   -0.98185E+00   704   0.607E+00    0.657E-01
DAV:   2    -0.872353925265E+03   -0.17043E-01   -0.20515E-01   792   0.798E-01    0.353E-01
DAV:   3    -0.872352519479E+03    0.14058E-02   -0.41600E-03   808   0.141E-01    0.216E-01
DAV:   4    -0.872351922493E+03    0.59699E-03   -0.45542E-03   800   0.174E-01    0.707E-02
DAV:   5    -0.872351927182E+03   -0.46887E-05   -0.10213E-03   808   0.704E-02    0.638E-02
DAV:   6    -0.872351895905E+03    0.31277E-04   -0.27355E-04   800   0.356E-02    0.325E-02
DAV:   7    -0.872351883014E+03    0.12891E-04   -0.38183E-05   816   0.184E-02    0.135E-02
DAV:   8    -0.872351879511E+03    0.35029E-05   -0.16580E-05   872   0.174E-02    0.627E-03
DAV:   9    -0.872351881268E+03   -0.17570E-05   -0.12231E-05   912   0.134E-02    0.441E-03
DAV:  10    -0.872351882584E+03   -0.13162E-05   -0.40613E-06   648   0.470E-03    0.492E-03
DAV:  11    -0.872351883442E+03   -0.85785E-06   -0.30594E-07   512   0.239E-03
  26 F= -.87235188E+03 E0= -.87235188E+03  d E =-.374903E-01
 trial-energy change:   -0.037490  1 .order   -0.037577   -0.046405   -0.028749
 step:   0.7819(harm=  0.7411)  dis= 0.03332  next Energy=  -872.376889 (dE=-0.625E-01)
 bond charge predicted
       N       E                     dE             d eps       ncg     rms          rms(c)
DAV:   1    -0.872327315466E+03    0.24567E-01   -0.30814E+01   704   0.108E+01    0.116E+00
DAV:   2    -0.872381317956E+03   -0.54002E-01   -0.64877E-01   792   0.142E+00    0.623E-01
DAV:   3    -0.872376942595E+03    0.43754E-02   -0.13309E-02   816   0.250E-01    0.383E-01
DAV:   4    -0.872374969400E+03    0.19732E-02   -0.14135E-02   800   0.306E-01    0.126E-01
DAV:   5    -0.872374985714E+03   -0.16314E-04   -0.31969E-03   808   0.125E-01    0.113E-01
DAV:   6    -0.872374889233E+03    0.96481E-04   -0.86551E-04   808   0.635E-02    0.577E-02
DAV:   7    -0.872374849828E+03    0.39405E-04   -0.11777E-04   816   0.324E-02    0.240E-02
DAV:   8    -0.872374839534E+03    0.10294E-04   -0.49546E-05   896   0.309E-02    0.106E-02
DAV:   9    -0.872374845775E+03   -0.62405E-05   -0.37345E-05   904   0.238E-02    0.756E-03
DAV:  10    -0.872374850530E+03   -0.47558E-05   -0.13654E-05   808   0.876E-03    0.879E-03
DAV:  11    -0.872374853111E+03   -0.25803E-05   -0.63496E-07   496   0.354E-03    0.604E-03
DAV:  12    -0.872374862204E+03   -0.90937E-05   -0.90515E-06   728   0.117E-02    0.617E-03
DAV:  13    -0.872374862686E+03   -0.48165E-06   -0.42297E-06   704   0.462E-03
  27 F= -.87237486E+03 E0= -.87237486E+03  d E =-.604696E-01
 curvature:  -1.97 expect dE=-0.280E+00 dE for cont linesearch -0.217E-03
 trial: gam= 0.91591 g(F)=  0.142E+00 g(S)=  0.000E+00 ort =-0.986E-02 (trialstep = 0.382E+00)
 search vector abs. value=  0.865E+00
 bond charge predicted
       N       E                     dE             d eps       ncg     rms          rms(c)
DAV:   1    -0.872379402354E+03   -0.45402E-02   -0.19686E+01   704   0.859E+00    0.958E-01
DAV:   2    -0.872413460687E+03   -0.34058E-01   -0.41200E-01   800   0.113E+00    0.483E-01
DAV:   3    -0.872410510191E+03    0.29505E-02   -0.79711E-03   832   0.201E-01    0.296E-01
DAV:   4    -0.872409193911E+03    0.13163E-02   -0.90742E-03   792   0.248E-01    0.967E-02
DAV:   5    -0.872409224378E+03   -0.30467E-04   -0.21473E-03   816   0.984E-02    0.913E-02
DAV:   6    -0.872409153612E+03    0.70766E-04   -0.53122E-04   808   0.482E-02    0.466E-02
DAV:   7    -0.872409123051E+03    0.30561E-04   -0.76412E-05   808   0.249E-02    0.188E-02
DAV:   8    -0.872409114511E+03    0.85403E-05   -0.31514E-05   888   0.242E-02    0.874E-03
DAV:   9    -0.872409119483E+03   -0.49725E-05   -0.25299E-05   928   0.182E-02    0.675E-03
DAV:  10    -0.872409123242E+03   -0.37587E-05   -0.80064E-06   784   0.633E-03    0.583E-03
DAV:  11    -0.872409125994E+03   -0.27522E-05   -0.69729E-07   488   0.441E-03    0.361E-03
DAV:  12    -0.872409131518E+03   -0.55237E-05   -0.45103E-06   656   0.933E-03    0.370E-03
DAV:  13    -0.872409132330E+03   -0.81198E-06   -0.33466E-06   688   0.389E-03
  28 F= -.87240913E+03 E0= -.87240913E+03  d E =-.342696E-01
 trial-energy change:   -0.034270  1 .order   -0.034273   -0.050858   -0.017688
 step:   0.5856(harm=  0.5856)  dis= 0.02813  next Energy=  -872.413852 (dE=-0.390E-01)
 bond charge predicted
       N       E                     dE             d eps       ncg     rms          rms(c)
DAV:   1    -0.872405412246E+03    0.37193E-02   -0.55959E+00   704   0.458E+00    0.511E-01
DAV:   2    -0.872415076284E+03   -0.96640E-02   -0.11690E-01   800   0.603E-01    0.257E-01
DAV:   3    -0.872414243092E+03    0.83319E-03   -0.22454E-03   832   0.107E-01    0.157E-01
DAV:   4    -0.872413878904E+03    0.36419E-03   -0.25521E-03   792   0.132E-01    0.509E-02
DAV:   5    -0.872413889457E+03   -0.10553E-04   -0.61162E-04   816   0.524E-02    0.484E-02
DAV:   6    -0.872413870021E+03    0.19435E-04   -0.14814E-04   808   0.254E-02    0.248E-02
DAV:   7    -0.872413861601E+03    0.84206E-05   -0.22059E-05   792   0.133E-02    0.993E-03
DAV:   8    -0.872413859576E+03    0.20248E-05   -0.87512E-06   824   0.130E-02    0.471E-03
DAV:   9    -0.872413861194E+03   -0.16184E-05   -0.74416E-06   800   0.103E-02    0.359E-03
DAV:  10    -0.872413862425E+03   -0.12311E-05   -0.26515E-06   648   0.371E-03    0.319E-03
DAV:  11    -0.872413863194E+03   -0.76843E-06   -0.30867E-07   504   0.223E-03
  29 F= -.87241386E+03 E0= -.87241386E+03  d E =-.390005E-01
 curvature:  -1.90 expect dE=-0.175E+00 dE for cont linesearch -0.123E-06
 trial: gam= 0.53689 g(F)=  0.919E-01 g(S)=  0.000E+00 ort = 0.236E-03 (trialstep = 0.423E+00)
 search vector abs. value=  0.341E+00
 bond charge predicted
       N       E                     dE             d eps       ncg     rms          rms(c)
DAV:   1    -0.872425986941E+03   -0.12125E-01   -0.10387E+01   704   0.622E+00    0.686E-01
DAV:   2    -0.872443783124E+03   -0.17796E-01   -0.21534E-01   816   0.818E-01    0.359E-01
DAV:   3    -0.872442291182E+03    0.14919E-02   -0.40610E-03   816   0.139E-01    0.220E-01
DAV:   4    -0.872441690445E+03    0.60074E-03   -0.47589E-03   784   0.168E-01    0.696E-02
DAV:   5    -0.872441701867E+03   -0.11422E-04   -0.10451E-03   816   0.694E-02    0.643E-02
DAV:   6    -0.872441672908E+03    0.28958E-04   -0.27467E-04   808   0.356E-02    0.334E-02
DAV:   7    -0.872441662683E+03    0.10225E-04   -0.43217E-05   792   0.172E-02    0.144E-02
DAV:   8    -0.872441663635E+03   -0.95149E-06   -0.21406E-05   872   0.141E-02    0.682E-03
DAV:   9    -0.872441666916E+03   -0.32810E-05   -0.85213E-06   792   0.767E-03    0.484E-03
DAV:  10    -0.872441668477E+03   -0.15618E-05   -0.14080E-06   560   0.258E-03    0.313E-03
DAV:  11    -0.872441672026E+03   -0.35491E-05   -0.16480E-06   528   0.323E-03    0.191E-03
DAV:  12    -0.872441674629E+03   -0.26027E-05   -0.75037E-07   512   0.294E-03    0.200E-03
DAV:  13    -0.872441676536E+03   -0.19070E-05   -0.12667E-06   512   0.358E-03    0.959E-04
DAV:  14    -0.872441677054E+03   -0.51740E-06   -0.28648E-07   520   0.119E-03
  30 F= -.87244168E+03 E0= -.87244168E+03  d E =-.278139E-01
 trial-energy change:   -0.027814  1 .order   -0.027780   -0.038898   -0.016661
 step:   0.7394(harm=  0.7394)  dis= 0.02097  next Energy=  -872.447884 (dE=-0.340E-01)
 bond charge predicted
       N       E                     dE             d eps       ncg     rms          rms(c)
DAV:   1    -0.872439018901E+03    0.26576E-02   -0.58322E+00   704   0.466E+00    0.515E-01
DAV:   2    -0.872448984146E+03   -0.99652E-02   -0.12069E-01   816   0.613E-01    0.269E-01
DAV:   3    -0.872448148478E+03    0.83567E-03   -0.22819E-03   816   0.104E-01    0.165E-01
DAV:   4    -0.872447820426E+03    0.32805E-03   -0.26481E-03   784   0.125E-01    0.517E-02
DAV:   5    -0.872447827610E+03   -0.71833E-05   -0.58304E-04   816   0.519E-02    0.479E-02
DAV:   6    -0.872447811990E+03    0.15620E-04   -0.15268E-04   808   0.266E-02    0.251E-02
DAV:   7    -0.872447806698E+03    0.52915E-05   -0.24268E-05   808   0.129E-02    0.108E-02
DAV:   8    -0.872447807756E+03   -0.10572E-05   -0.11904E-05   848   0.106E-02    0.509E-03
DAV:   9    -0.872447810085E+03   -0.23299E-05   -0.47074E-06   736   0.582E-03    0.356E-03
DAV:  10    -0.872447811210E+03   -0.11251E-05   -0.86404E-07   528   0.205E-03    0.231E-03
DAV:  11    -0.872447813645E+03   -0.24347E-05   -0.10359E-06   504   0.256E-03    0.150E-03
DAV:  12    -0.872447815259E+03   -0.16137E-05   -0.47365E-07   504   0.217E-03    0.157E-03
DAV:  13    -0.872447816339E+03   -0.10798E-05   -0.73933E-07   520   0.275E-03    0.742E-04
DAV:  14    -0.872447816648E+03   -0.30948E-06   -0.19286E-07   520   0.938E-04
  31 F= -.87244782E+03 E0= -.87244782E+03  d E =-.339535E-01
 curvature:  -1.37 expect dE=-0.129E+00 dE for cont linesearch -0.181E-05
 trial: gam= 1.07386 g(F)=  0.943E-01 g(S)=  0.000E+00 ort =-0.671E-03 (trialstep = 0.341E+00)
 search vector abs. value=  0.487E+00
 bond charge predicted
       N       E                     dE             d eps       ncg     rms          rms(c)
DAV:   1    -0.872456054295E+03   -0.82380E-02   -0.10357E+01   704   0.623E+00    0.671E-01
DAV:   2    -0.872474488383E+03   -0.18434E-01   -0.21506E-01   784   0.809E-01    0.330E-01
DAV:   3    -0.872473159362E+03    0.13290E-02   -0.39287E-03   824   0.137E-01    0.204E-01
DAV:   4    -0.872472554326E+03    0.60504E-03   -0.38959E-03   800   0.170E-01    0.582E-02
DAV:   5    -0.872472612839E+03   -0.58513E-04   -0.10905E-03   816   0.675E-02    0.620E-02
DAV:   6    -0.872472586439E+03    0.26400E-04   -0.16720E-04   816   0.275E-02    0.371E-02
DAV:   7    -0.872472568091E+03    0.18348E-04   -0.45447E-05   800   0.183E-02    0.142E-02
DAV:   8    -0.872472564150E+03    0.39409E-05   -0.20827E-05   840   0.168E-02    0.685E-03
DAV:   9    -0.872472563600E+03    0.54968E-06   -0.13488E-05   864   0.126E-02    0.582E-03
DAV:  10    -0.872472563513E+03    0.87122E-07   -0.34119E-06   656   0.406E-03
  32 F= -.87247256E+03 E0= -.87247256E+03  d E =-.247469E-01
 trial-energy change:   -0.024747  1 .order   -0.024830   -0.031908   -0.017751
 step:   0.8074(harm=  0.7687)  dis= 0.02902  next Energy=  -872.484488 (dE=-0.367E-01)
 bond charge predicted
       N       E                     dE             d eps       ncg     rms          rms(c)
DAV:   1    -0.872452337469E+03    0.20226E-01   -0.19363E+01   704   0.852E+00    0.918E-01
DAV:   2    -0.872486870499E+03   -0.34533E-01   -0.40299E-01   784   0.111E+00    0.452E-01
DAV:   3    -0.872484350123E+03    0.25204E-02   -0.73991E-03   824   0.188E-01    0.279E-01
DAV:   4    -0.872483161640E+03    0.11885E-02   -0.72687E-03   800   0.232E-01    0.800E-02
DAV:   5    -0.872483269618E+03   -0.10798E-03   -0.20571E-03   824   0.933E-02    0.851E-02
DAV:   6    -0.872483220086E+03    0.49532E-04   -0.31471E-04   816   0.378E-02    0.513E-02
DAV:   7    -0.872483184464E+03    0.35622E-04   -0.84359E-05   808   0.257E-02    0.195E-02
DAV:   8    -0.872483176916E+03    0.75475E-05   -0.40873E-05   856   0.242E-02    0.957E-03
DAV:   9    -0.872483176443E+03    0.47281E-06   -0.27422E-05   912   0.183E-02    0.813E-03
DAV:  10    -0.872483176557E+03   -0.11310E-06   -0.73675E-06   792   0.604E-03
  33 F= -.87248318E+03 E0= -.87248318E+03  d E =-.353599E-01
 curvature:  -1.98 expect dE=-0.196E+00 dE for cont linesearch -0.133E-03
 trial: gam= 1.09467 g(F)=  0.990E-01 g(S)=  0.000E+00 ort =-0.570E-02 (trialstep = 0.316E+00)
 search vector abs. value=  0.670E+00
 bond charge predicted
       N       E                     dE             d eps       ncg     rms          rms(c)
DAV:   1    -0.872482937605E+03    0.23884E-03   -0.12180E+01   704   0.674E+00    0.651E-01
DAV:   2    -0.872505642293E+03   -0.22705E-01   -0.25921E-01   808   0.880E-01    0.354E-01
DAV:   3    -0.872504178027E+03    0.14643E-02   -0.45649E-03   816   0.146E-01    0.222E-01
DAV:   4    -0.872503361050E+03    0.81698E-03   -0.41496E-03   808   0.174E-01    0.648E-02
DAV:   5    -0.872503416027E+03   -0.54977E-04   -0.12243E-03   808   0.749E-02    0.634E-02
DAV:   6    -0.872503388120E+03    0.27907E-04   -0.22291E-04   808   0.328E-02    0.380E-02
DAV:   7    -0.872503370023E+03    0.18097E-04   -0.32872E-05   808   0.170E-02    0.157E-02
DAV:   8    -0.872503362681E+03    0.73426E-05   -0.20723E-05   880   0.193E-02    0.590E-03
DAV:   9    -0.872503363068E+03   -0.38721E-06   -0.17992E-05   968   0.167E-02    0.584E-03
DAV:  10    -0.872503363688E+03   -0.62012E-06   -0.70420E-06   784   0.532E-03
  34 F= -.87250336E+03 E0= -.87250336E+03  d E =-.201871E-01
 trial-energy change:   -0.020187  1 .order   -0.020206   -0.029288   -0.011123
 step:   0.5089(harm=  0.5089)  dis= 0.02389  next Energy=  -872.506788 (dE=-0.236E-01)
 bond charge predicted
       N       E                     dE             d eps       ncg     rms          rms(c)
DAV:   1    -0.872499142657E+03    0.42204E-02   -0.45679E+00   704   0.412E+00    0.398E-01
DAV:   2    -0.872507567886E+03   -0.84252E-02   -0.96761E-02   800   0.538E-01    0.216E-01
DAV:   3    -0.872507021591E+03    0.54629E-03   -0.17661E-03   824   0.904E-02    0.136E-01
DAV:   4    -0.872506710338E+03    0.31125E-03   -0.15710E-03   808   0.109E-01    0.403E-02
DAV:   5    -0.872506730390E+03   -0.20052E-04   -0.48213E-04   816   0.474E-02    0.399E-02
DAV:   6    -0.872506718446E+03    0.11944E-04   -0.86031E-05   808   0.205E-02    0.244E-02
DAV:   7    -0.872506709993E+03    0.84532E-05   -0.13977E-05   824   0.118E-02    0.985E-03
DAV:   8    -0.872506706738E+03    0.32542E-05   -0.93463E-06   824   0.138E-02    0.426E-03
DAV:   9    -0.872506707302E+03   -0.56343E-06   -0.95174E-06   936   0.128E-02
  35 F= -.87250671E+03 E0= -.87250671E+03  d E =-.235307E-01
 curvature:  -1.84 expect dE=-0.967E-01 dE for cont linesearch -0.838E-06
 trial: gam= 0.42270 g(F)=  0.527E-01 g(S)=  0.000E+00 ort =-0.553E-03 (trialstep = 0.354E+00)
 search vector abs. value=  0.172E+00
 bond charge predicted
       N       E                     dE             d eps       ncg     rms          rms(c)
DAV:   1    -0.872515140022E+03   -0.84333E-02   -0.40912E+00   704   0.390E+00    0.433E-01
DAV:   2    -0.872522231438E+03   -0.70914E-02   -0.84003E-02   800   0.510E-01    0.207E-01
DAV:   3    -0.872521612260E+03    0.61918E-03   -0.16995E-03   824   0.927E-02    0.126E-01
DAV:   4    -0.872521320196E+03    0.29206E-03   -0.16454E-03   808   0.105E-01    0.393E-02
DAV:   5    -0.872521329446E+03   -0.92497E-05   -0.39993E-04   808   0.444E-02    0.387E-02
DAV:   6    -0.872521319827E+03    0.96189E-05   -0.90227E-05   816   0.211E-02    0.216E-02
DAV:   7    -0.872521314769E+03    0.50582E-05   -0.87197E-06   800   0.103E-02    0.109E-02
DAV:   8    -0.872521311721E+03    0.30476E-05   -0.49771E-06   712   0.120E-02    0.295E-03
DAV:   9    -0.872521312529E+03   -0.80789E-06   -0.51146E-06   712   0.101E-02
  36 F= -.87252131E+03 E0= -.87252131E+03  d E =-.146052E-01
 trial-energy change:   -0.014605  1 .order   -0.014626   -0.018586   -0.010667
 step:   0.8315(harm=  0.8315)  dis= 0.02358  next Energy=  -872.528518 (dE=-0.218E-01)
 bond charge predicted
       N       E                     dE             d eps       ncg     rms          rms(c)
DAV:   1    -0.872517226341E+03    0.40854E-02   -0.74228E+00   704   0.525E+00    0.582E-01
DAV:   2    -0.872530077239E+03   -0.12851E-01   -0.15233E-01   800   0.686E-01    0.278E-01
DAV:   3    -0.872528946677E+03    0.11306E-02   -0.30769E-03   824   0.125E-01    0.170E-01
DAV:   4    -0.872528401673E+03    0.54500E-03   -0.29735E-03   800   0.142E-01    0.529E-02
DAV:   5    -0.872528419904E+03   -0.18231E-04   -0.74334E-04   824   0.605E-02    0.526E-02
DAV:   6    -0.872528402611E+03    0.17293E-04   -0.16187E-04   816   0.283E-02    0.298E-02
DAV:   7    -0.872528393951E+03    0.86596E-05   -0.15895E-05   824   0.145E-02    0.149E-02
DAV:   8    -0.872528390194E+03    0.37570E-05   -0.10578E-05   848   0.175E-02    0.412E-03
DAV:   9    -0.872528394178E+03   -0.39845E-05   -0.10180E-05   856   0.149E-02    0.353E-03
DAV:  10    -0.872528397173E+03   -0.29941E-05   -0.64890E-06   784   0.602E-03    0.521E-03
DAV:  11    -0.872528397451E+03   -0.27871E-06   -0.25991E-07   520   0.102E-03
  37 F= -.87252840E+03 E0= -.87252840E+03  d E =-.216901E-01
 curvature:  -1.36 expect dE=-0.804E-01 dE for cont linesearch -0.189E-06
 trial: gam= 1.14527 g(F)=  0.590E-01 g(S)=  0.000E+00 ort =-0.155E-03 (trialstep = 0.272E+00)
 search vector abs. value=  0.284E+00
 bond charge predicted
       N       E                     dE             d eps       ncg     rms          rms(c)
DAV:   1    -0.872534490447E+03   -0.60933E-02   -0.41350E+00   704   0.389E+00    0.404E-01
DAV:   2    -0.872541702539E+03   -0.72121E-02   -0.84598E-02   816   0.506E-01    0.200E-01
DAV:   3    -0.872541132566E+03    0.56997E-03   -0.15574E-03   832   0.859E-02    0.124E-01
DAV:   4    -0.872540820075E+03    0.31249E-03   -0.14443E-03   808   0.993E-02    0.360E-02
DAV:   5    -0.872540834455E+03   -0.14380E-04   -0.40002E-04   816   0.433E-02    0.349E-02
DAV:   6    -0.872540825790E+03    0.86649E-05   -0.76554E-05   816   0.192E-02    0.202E-02
DAV:   7    -0.872540820764E+03    0.50258E-05   -0.67510E-06   768   0.941E-03    0.961E-03
DAV:   8    -0.872540818511E+03    0.22527E-05   -0.59827E-06   752   0.119E-02    0.302E-03
DAV:   9    -0.872540820467E+03   -0.19553E-05   -0.61772E-06   736   0.108E-02    0.260E-03
DAV:  10    -0.872540821413E+03   -0.94603E-06   -0.33296E-06   672   0.377E-03
  38 F= -.87254082E+03 E0= -.87254082E+03  d E =-.124240E-01
 trial-energy change:   -0.012424  1 .order   -0.012422   -0.016013   -0.008832
 step:   0.6067(harm=  0.6067)  dis= 0.02350  next Energy=  -872.546252 (dE=-0.179E-01)
 bond charge predicted
       N       E                     dE             d eps       ncg     rms          rms(c)
DAV:   1    -0.872536665235E+03    0.41552E-02   -0.62582E+00   704   0.478E+00    0.496E-01
DAV:   2    -0.872547588671E+03   -0.10923E-01   -0.12807E-01   816   0.622E-01    0.246E-01
DAV:   3    -0.872546713297E+03    0.87537E-03   -0.23365E-03   832   0.106E-01    0.152E-01
DAV:   4    -0.872546227063E+03    0.48623E-03   -0.21887E-03   800   0.123E-01    0.441E-02
DAV:   5    -0.872546249458E+03   -0.22395E-04   -0.62086E-04   824   0.540E-02    0.432E-02
DAV:   6    -0.872546235694E+03    0.13764E-04   -0.11427E-04   816   0.234E-02    0.252E-02
DAV:   7    -0.872546227340E+03    0.83540E-05   -0.10304E-05   792   0.121E-02    0.119E-02
DAV:   8    -0.872546224075E+03    0.32649E-05   -0.10359E-05   840   0.158E-02    0.395E-03
DAV:   9    -0.872546227834E+03   -0.37593E-05   -0.10170E-05   864   0.144E-02    0.325E-03
DAV:  10    -0.872546229657E+03   -0.18223E-05   -0.59372E-06   792   0.501E-03    0.512E-03
DAV:  11    -0.872546229739E+03   -0.82706E-07   -0.13746E-07   520   0.815E-04
  39 F= -.87254623E+03 E0= -.87254623E+03  d E =-.178323E-01
 curvature:  -1.46 expect dE=-0.608E-01 dE for cont linesearch -0.246E-07
 trial: gam= 0.68738 g(F)=  0.415E-01 g(S)=  0.000E+00 ort = 0.691E-04 (trialstep = 0.339E+00)
 search vector abs. value=  0.176E+00
 bond charge predicted
       N       E                     dE             d eps       ncg     rms          rms(c)
DAV:   1    -0.872550409261E+03   -0.41796E-02   -0.40443E+00   704   0.385E+00    0.395E-01
DAV:   2    -0.872557845396E+03   -0.74361E-02   -0.84342E-02   800   0.502E-01    0.198E-01
DAV:   3    -0.872557321137E+03    0.52426E-03   -0.14348E-03   824   0.855E-02    0.124E-01
DAV:   4    -0.872557036860E+03    0.28428E-03   -0.17573E-03   808   0.111E-01    0.403E-02
DAV:   5    -0.872557047537E+03   -0.10677E-04   -0.45056E-04   800   0.456E-02    0.398E-02
DAV:   6    -0.872557036223E+03    0.11314E-04   -0.81930E-05   808   0.195E-02    0.221E-02
DAV:   7    -0.872557029456E+03    0.67672E-05   -0.14920E-05   848   0.119E-02    0.982E-03
DAV:   8    -0.872557026711E+03    0.27445E-05   -0.89486E-06   832   0.128E-02    0.437E-03
DAV:   9    -0.872557026942E+03   -0.23088E-06   -0.72432E-06   784   0.858E-03
  40 F= -.87255703E+03 E0= -.87255703E+03  d E =-.107972E-01
 trial-energy change:   -0.010797  1 .order   -0.010841   -0.014095   -0.007588
 step:   0.7749(harm=  0.7343)  dis= 0.02170  next Energy=  -872.561812 (dE=-0.156E-01)
 bond charge predicted
       N       E                     dE             d eps       ncg     rms          rms(c)
DAV:   1    -0.872550333112E+03    0.66936E-02   -0.66896E+00   704   0.496E+00    0.508E-01
DAV:   2    -0.872562641284E+03   -0.12308E-01   -0.13964E-01   800   0.646E-01    0.255E-01
DAV:   3    -0.872561758790E+03    0.88249E-03   -0.23672E-03   832   0.110E-01    0.159E-01
DAV:   4    -0.872561272307E+03    0.48648E-03   -0.29251E-03   808   0.145E-01    0.519E-02
DAV:   5    -0.872561290989E+03   -0.18682E-04   -0.76883E-04   800   0.595E-02    0.515E-02
DAV:   6    -0.872561271517E+03    0.19471E-04   -0.13418E-04   808   0.249E-02    0.290E-02
DAV:   7    -0.872561259053E+03    0.12465E-04   -0.25495E-05   848   0.160E-02    0.127E-02
DAV:   8    -0.872561254218E+03    0.48342E-05   -0.16515E-05   944   0.177E-02    0.595E-03
DAV:   9    -0.872561254932E+03   -0.71372E-06   -0.13220E-05   840   0.121E-02    0.567E-03
DAV:  10    -0.872561255314E+03   -0.38201E-06   -0.32996E-06   648   0.371E-03
  41 F= -.87256126E+03 E0= -.87256126E+03  d E =-.150256E-01
 curvature:  -1.54 expect dE=-0.617E-01 dE for cont linesearch -0.621E-04
 trial: gam= 1.02936 g(F)=  0.402E-01 g(S)=  0.000E+00 ort =-0.267E-02 (trialstep = 0.339E+00)
 search vector abs. value=  0.221E+00
 bond charge predicted
       N       E                     dE             d eps       ncg     rms          rms(c)
DAV:   1    -0.872561442425E+03   -0.18749E-03   -0.51230E+00   704   0.435E+00    0.433E-01
DAV:   2    -0.872571143176E+03   -0.97008E-02   -0.10799E-01   800   0.564E-01    0.220E-01
DAV:   3    -0.872570553040E+03    0.59014E-03   -0.17917E-03   840   0.911E-02    0.139E-01
DAV:   4    -0.872570237211E+03    0.31583E-03   -0.20953E-03   808   0.118E-01    0.426E-02
DAV:   5    -0.872570252972E+03   -0.15761E-04   -0.49730E-04   792   0.471E-02    0.428E-02
DAV:   6    -0.872570243143E+03    0.98290E-05   -0.94898E-05   816   0.209E-02    0.242E-02
DAV:   7    -0.872570238014E+03    0.51292E-05   -0.18706E-05   784   0.114E-02    0.111E-02
DAV:   8    -0.872570237628E+03    0.38595E-06   -0.98237E-06   776   0.102E-02
  42 F= -.87257024E+03 E0= -.87257024E+03  d E =-.898231E-02
 trial-energy change:   -0.008982  1 .order   -0.008988   -0.012692   -0.005284
 step:   0.5809(harm=  0.5809)  dis= 0.01530  next Energy=  -872.572127 (dE=-0.109E-01)
 bond charge predicted
       N       E                     dE             d eps       ncg     rms          rms(c)
DAV:   1    -0.872567656315E+03    0.25817E-02   -0.26068E+00   704   0.310E+00    0.308E-01
DAV:   2    -0.872572576616E+03   -0.49203E-02   -0.54782E-02   800   0.402E-01    0.156E-01
DAV:   3    -0.872572274503E+03    0.30211E-03   -0.90468E-04   840   0.649E-02    0.986E-02
DAV:   4    -0.872572110072E+03    0.16443E-03   -0.10504E-03   808   0.842E-02    0.300E-02
DAV:   5    -0.872572118632E+03   -0.85595E-05   -0.25790E-04   792   0.340E-02    0.304E-02
DAV:   6    -0.872572113570E+03    0.50624E-05   -0.45743E-05   816   0.145E-02    0.177E-02
DAV:   7    -0.872572110786E+03    0.27838E-05   -0.92938E-06   784   0.859E-03    0.797E-03
DAV:   8    -0.872572110683E+03    0.10300E-06   -0.54389E-06   760   0.839E-03
  43 F= -.87257211E+03 E0= -.87257211E+03  d E =-.108554E-01
 curvature:  -1.72 expect dE=-0.397E-01 dE for cont linesearch -0.354E-08
 trial: gam= 0.44969 g(F)=  0.232E-01 g(S)=  0.000E+00 ort = 0.214E-04 (trialstep = 0.387E+00)
 search vector abs. value=  0.679E-01
 bond charge predicted
       N       E                     dE             d eps       ncg     rms          rms(c)
DAV:   1    -0.872574943972E+03   -0.28332E-02   -0.18768E+00   704   0.270E+00    0.342E-01
DAV:   2    -0.872578577603E+03   -0.36336E-02   -0.42606E-02   808   0.370E-01    0.150E-01
DAV:   3    -0.872578210709E+03    0.36689E-03   -0.84854E-04   808   0.712E-02    0.912E-02
DAV:   4    -0.872578026257E+03    0.18445E-03   -0.99505E-04   808   0.859E-02    0.321E-02
DAV:   5    -0.872578028263E+03   -0.20065E-05   -0.26899E-04   808   0.369E-02    0.328E-02
DAV:   6    -0.872578020727E+03    0.75363E-05   -0.48560E-05   808   0.151E-02    0.199E-02
DAV:   7    -0.872578015674E+03    0.50535E-05   -0.71999E-06   784   0.109E-02    0.947E-03
DAV:   8    -0.872578014487E+03    0.11865E-05   -0.60010E-06   736   0.129E-02    0.304E-03
DAV:   9    -0.872578017687E+03   -0.32000E-05   -0.64943E-06   712   0.109E-02    0.307E-03
DAV:  10    -0.872578019137E+03   -0.14496E-05   -0.30165E-06   648   0.361E-03    0.386E-03
DAV:  11    -0.872578019617E+03   -0.48032E-06   -0.27553E-07   520   0.112E-03
  44 F= -.87257802E+03 E0= -.87257802E+03  d E =-.590893E-02
 trial-energy change:   -0.005909  1 .order   -0.005923   -0.008975   -0.002871
 step:   0.5696(harm=  0.5696)  dis= 0.00643  next Energy=  -872.578708 (dE=-0.660E-02)
 bond charge predicted
       N       E                     dE             d eps       ncg     rms          rms(c)
DAV:   1    -0.872578012591E+03    0.65460E-05   -0.41486E-01   704   0.127E+00    0.161E-01
DAV:   2    -0.872578808996E+03   -0.79640E-03   -0.94020E-03   816   0.174E-01    0.703E-02
DAV:   3    -0.872578727743E+03    0.81253E-04   -0.19023E-04   816   0.336E-02    0.429E-02
DAV:   4    -0.872578686205E+03    0.41538E-04   -0.21749E-04   808   0.405E-02    0.150E-02
DAV:   5    -0.872578686720E+03   -0.51524E-06   -0.60004E-05   808   0.176E-02    0.155E-02
DAV:   6    -0.872578685122E+03    0.15984E-05   -0.10819E-05   816   0.717E-03    0.956E-03
DAV:   7    -0.872578684100E+03    0.10215E-05   -0.13309E-06   520   0.546E-03    0.456E-03
DAV:   8    -0.872578684132E+03   -0.31920E-07   -0.26307E-06   616   0.691E-03
  45 F= -.87257868E+03 E0= -.87257868E+03  d E =-.657345E-02
 curvature:  -0.83 expect dE=-0.122E-01 dE for cont linesearch -0.120E-07
 trial: gam= 0.65735 g(F)=  0.146E-01 g(S)=  0.000E+00 ort =-0.312E-04 (trialstep = 0.424E+00)
 search vector abs. value=  0.439E-01
 bond charge predicted
       N       E                     dE             d eps       ncg     rms          rms(c)
DAV:   1    -0.872580702147E+03   -0.20180E-02   -0.13701E+00   704   0.232E+00    0.291E-01
DAV:   2    -0.872583202225E+03   -0.25001E-02   -0.29747E-02   808   0.314E-01    0.123E-01
DAV:   3    -0.872582960799E+03    0.24143E-03   -0.65405E-04   832   0.616E-02    0.754E-02
DAV:   4    -0.872582838581E+03    0.12222E-03   -0.66688E-04   808   0.708E-02    0.264E-02
DAV:   5    -0.872582840646E+03   -0.20659E-05   -0.17584E-04   816   0.305E-02    0.276E-02
DAV:   6    -0.872582835460E+03    0.51862E-05   -0.33184E-05   808   0.127E-02    0.174E-02
DAV:   7    -0.872582830510E+03    0.49505E-05   -0.56252E-06   752   0.985E-03    0.778E-03
DAV:   8    -0.872582828362E+03    0.21479E-05   -0.53425E-06   744   0.114E-02    0.301E-03
DAV:   9    -0.872582828754E+03   -0.39189E-06   -0.61542E-06   728   0.957E-03
  46 F= -.87258283E+03 E0= -.87258283E+03  d E =-.414462E-02
 trial-energy change:   -0.004145  1 .order   -0.004145   -0.006169   -0.002120
 step:   0.6458(harm=  0.6458)  dis= 0.00569  next Energy=  -872.583384 (dE=-0.470E-02)
 bond charge predicted
       N       E                     dE             d eps       ncg     rms          rms(c)
DAV:   1    -0.872582799389E+03    0.28973E-04   -0.37581E-01   704   0.121E+00    0.152E-01
DAV:   2    -0.872583483405E+03   -0.68402E-03   -0.81572E-03   808   0.165E-01    0.642E-02
DAV:   3    -0.872583415150E+03    0.68255E-04   -0.17624E-04   832   0.324E-02    0.395E-02
DAV:   4    -0.872583378992E+03    0.36158E-04   -0.18467E-04   808   0.383E-02    0.139E-02
DAV:   5    -0.872583379728E+03   -0.73646E-06   -0.53375E-05   808   0.168E-02    0.148E-02
DAV:   6    -0.872583378200E+03    0.15286E-05   -0.90762E-06   816   0.664E-03    0.963E-03
DAV:   7    -0.872583376462E+03    0.17376E-05   -0.14366E-06   504   0.601E-03    0.434E-03
DAV:   8    -0.872583375863E+03    0.59904E-06   -0.32591E-06   640   0.744E-03
  47 F= -.87258338E+03 E0= -.87258338E+03  d E =-.469173E-02
 curvature:  -0.97 expect dE=-0.119E-01 dE for cont linesearch -0.730E-07
 trial: gam= 0.83435 g(F)=  0.122E-01 g(S)=  0.000E+00 ort =-0.574E-04 (trialstep = 0.468E+00)
 search vector abs. value=  0.426E-01
 bond charge predicted
       N       E                     dE             d eps       ncg     rms          rms(c)
DAV:   1    -0.872584603695E+03   -0.12272E-02   -0.16164E+00   704   0.251E+00    0.266E-01
DAV:   2    -0.872587619445E+03   -0.30157E-02   -0.34825E-02   816   0.337E-01    0.133E-01
DAV:   3    -0.872587389933E+03    0.22951E-03   -0.67259E-04   816   0.592E-02    0.831E-02
DAV:   4    -0.872587266914E+03    0.12302E-03   -0.73275E-04   808   0.724E-02    0.283E-02
DAV:   5    -0.872587268056E+03   -0.11428E-05   -0.17970E-04   808   0.301E-02    0.261E-02
DAV:   6    -0.872587261938E+03    0.61181E-05   -0.42373E-05   800   0.145E-02    0.135E-02
DAV:   7    -0.872587258820E+03    0.31183E-05   -0.61779E-06   768   0.845E-03    0.595E-03
DAV:   8    -0.872587257494E+03    0.13261E-05   -0.37627E-06   672   0.933E-03    0.284E-03
DAV:   9    -0.872587258455E+03   -0.96142E-06   -0.35851E-06   640   0.747E-03
  48 F= -.87258726E+03 E0= -.87258726E+03  d E =-.388259E-02
 trial-energy change:   -0.003883  1 .order   -0.003906   -0.005690   -0.002122
 step:   0.7661(harm=  0.7468)  dis= 0.00789  next Energy=  -872.587927 (dE=-0.455E-02)
 bond charge predicted
       N       E                     dE             d eps       ncg     rms          rms(c)
DAV:   1    -0.872586795241E+03    0.46225E-03   -0.65370E-01   704   0.160E+00    0.169E-01
DAV:   2    -0.872588008710E+03   -0.12135E-02   -0.14073E-02   824   0.215E-01    0.847E-02
DAV:   3    -0.872587912871E+03    0.95839E-04   -0.27244E-04   808   0.378E-02    0.530E-02
DAV:   4    -0.872587859415E+03    0.53456E-04   -0.29678E-04   808   0.469E-02    0.180E-02
DAV:   5    -0.872587860105E+03   -0.69000E-06   -0.76712E-05   816   0.197E-02    0.169E-02
DAV:   6    -0.872587857616E+03    0.24891E-05   -0.17071E-05   808   0.921E-03    0.895E-03
DAV:   7    -0.872587856449E+03    0.11668E-05   -0.24051E-06   560   0.601E-03    0.387E-03
DAV:   8    -0.872587856441E+03    0.81200E-08   -0.28028E-06   608   0.726E-03
  49 F= -.87258786E+03 E0= -.87258786E+03  d E =-.448058E-02
 curvature:  -1.30 expect dE=-0.147E-01 dE for cont linesearch -0.529E-05
 trial: gam= 0.95335 g(F)=  0.113E-01 g(S)=  0.000E+00 ort =-0.416E-03 (trialstep = 0.457E+00)
 search vector abs. value=  0.492E-01
 bond charge predicted
       N       E                     dE             d eps       ncg     rms          rms(c)
DAV:   1    -0.872588304996E+03   -0.44855E-03   -0.18354E+00   704   0.270E+00    0.281E-01
DAV:   2    -0.872591744839E+03   -0.34398E-02   -0.39219E-02   800   0.360E-01    0.134E-01
DAV:   3    -0.872591518388E+03    0.22645E-03   -0.74624E-04   824   0.611E-02    0.842E-02
DAV:   4    -0.872591398649E+03    0.11974E-03   -0.78352E-04   808   0.764E-02    0.281E-02
DAV:   5    -0.872591405161E+03   -0.65119E-05   -0.19030E-04   800   0.297E-02    0.277E-02
DAV:   6    -0.872591400447E+03    0.47147E-05   -0.38903E-05   808   0.132E-02    0.151E-02
DAV:   7    -0.872591398692E+03    0.17543E-05   -0.88243E-06   776   0.690E-03    0.649E-03
DAV:   8    -0.872591398694E+03   -0.13970E-08   -0.34343E-06   656   0.537E-03
  50 F= -.87259140E+03 E0= -.87259140E+03  d E =-.354225E-02
 trial-energy change:   -0.003542  1 .order   -0.003529   -0.004966   -0.002092
 step:   0.7753(harm=  0.7901)  dis= 0.00839  next Energy=  -872.592131 (dE=-0.427E-02)
 bond charge predicted
       N       E                     dE             d eps       ncg     rms          rms(c)
DAV:   1    -0.872590676038E+03    0.72265E-03   -0.88818E-01   704   0.188E+00    0.195E-01
DAV:   2    -0.872592339834E+03   -0.16638E-02   -0.18960E-02   800   0.250E-01    0.931E-02
DAV:   3    -0.872592228217E+03    0.11162E-03   -0.35685E-04   832   0.425E-02    0.585E-02
DAV:   4    -0.872592169054E+03    0.59163E-04   -0.38137E-04   808   0.537E-02    0.195E-02
DAV:   5    -0.872592172343E+03   -0.32889E-05   -0.94765E-05   792   0.209E-02    0.193E-02
DAV:   6    -0.872592170041E+03    0.23018E-05   -0.18289E-05   816   0.901E-03    0.107E-02
DAV:   7    -0.872592169229E+03    0.81252E-06   -0.42081E-06   680   0.490E-03
  51 F= -.87259217E+03 E0= -.87259217E+03  d E =-.431279E-02
 curvature:  -1.79 expect dE=-0.189E-01 dE for cont linesearch -0.461E-05
 trial: gam= 0.83382 g(F)=  0.106E-01 g(S)=  0.000E+00 ort = 0.357E-03 (trialstep = 0.521E+00)
 search vector abs. value=  0.454E-01
 bond charge predicted
       N       E                     dE             d eps       ncg     rms          rms(c)
DAV:   1    -0.872591850096E+03    0.31995E-03   -0.21410E+00   704   0.292E+00    0.311E-01
DAV:   2    -0.872595997087E+03   -0.41470E-02   -0.47465E-02   824   0.396E-01    0.152E-01
DAV:   3    -0.872595706131E+03    0.29096E-03   -0.88181E-04   808   0.670E-02    0.957E-02
DAV:   4    -0.872595544987E+03    0.16114E-03   -0.10030E-03   800   0.837E-02    0.327E-02
DAV:   5    -0.872595547590E+03   -0.26037E-05   -0.23941E-04   824   0.347E-02    0.313E-02
DAV:   6    -0.872595540060E+03    0.75305E-05   -0.56559E-05   808   0.167E-02    0.170E-02
DAV:   7    -0.872595537086E+03    0.29737E-05   -0.10986E-05   776   0.989E-03    0.711E-03
DAV:   8    -0.872595537214E+03   -0.12777E-06   -0.57278E-06   728   0.950E-03
  52 F= -.87259554E+03 E0= -.87259554E+03  d E =-.336799E-02
 trial-energy change:   -0.003368  1 .order   -0.003381   -0.005666   -0.001095
 step:   0.6483(harm=  0.6457)  dis= 0.00773  next Energy=  -872.595671 (dE=-0.350E-02)
 bond charge predicted
       N       E                     dE             d eps       ncg     rms          rms(c)
DAV:   1    -0.872595462026E+03    0.75061E-04   -0.12832E-01   704   0.715E-01    0.755E-02
DAV:   2    -0.872595709269E+03   -0.24724E-03   -0.28371E-03   824   0.968E-02    0.370E-02
DAV:   3    -0.872595691193E+03    0.18076E-04   -0.52328E-05   832   0.163E-02    0.234E-02
DAV:   4    -0.872595680907E+03    0.10286E-04   -0.58108E-05   784   0.206E-02    0.784E-03
DAV:   5    -0.872595681408E+03   -0.50086E-06   -0.15659E-05   808   0.900E-03    0.769E-03
DAV:   6    -0.872595681161E+03    0.24715E-06   -0.31045E-06   608   0.409E-03
  53 F= -.87259568E+03 E0= -.87259568E+03  d E =-.351193E-02
 curvature:  -1.35 expect dE=-0.119E-01 dE for cont linesearch -0.516E-07
 trial: gam= 0.88242 g(F)=  0.880E-02 g(S)=  0.000E+00 ort = 0.417E-04 (trialstep = 0.546E+00)
 search vector abs. value=  0.442E-01
 bond charge predicted
       N       E                     dE             d eps       ncg     rms          rms(c)
DAV:   1    -0.872595076442E+03    0.60497E-03   -0.23392E+00   704   0.305E+00    0.319E-01
DAV:   2    -0.872599410608E+03   -0.43342E-02   -0.49420E-02   808   0.404E-01    0.156E-01
DAV:   3    -0.872599117331E+03    0.29328E-03   -0.91278E-04   832   0.707E-02    0.982E-02
DAV:   4    -0.872598957283E+03    0.16005E-03   -0.10416E-03   808   0.940E-02    0.329E-02
DAV:   5    -0.872598966884E+03   -0.96011E-05   -0.31005E-04   808   0.381E-02    0.345E-02
DAV:   6    -0.872598958233E+03    0.86508E-05   -0.44883E-05   808   0.142E-02    0.213E-02
DAV:   7    -0.872598950291E+03    0.79427E-05   -0.15165E-05   808   0.111E-02    0.871E-03
DAV:   8    -0.872598947556E+03    0.27345E-05   -0.84164E-06   840   0.117E-02    0.408E-03
DAV:   9    -0.872598946793E+03    0.76323E-06   -0.61715E-06   784   0.960E-03
  54 F= -.87259895E+03 E0= -.87259895E+03  d E =-.326563E-02
 trial-energy change:   -0.003266  1 .order   -0.003271   -0.004829   -0.001713
 step:   0.8467(harm=  0.8467)  dis= 0.00953  next Energy=  -872.599423 (dE=-0.374E-02)
 bond charge predicted
       N       E                     dE             d eps       ncg     rms          rms(c)
DAV:   1    -0.872598248313E+03    0.69924E-03   -0.70684E-01   704   0.168E+00    0.174E-01
DAV:   2    -0.872599548795E+03   -0.13005E-02   -0.14866E-02   800   0.222E-01    0.855E-02
DAV:   3    -0.872599458395E+03    0.90399E-04   -0.28067E-04   832   0.394E-02    0.540E-02
DAV:   4    -0.872599404757E+03    0.53639E-04   -0.31034E-04   824   0.529E-02    0.179E-02
DAV:   5    -0.872599407941E+03   -0.31847E-05   -0.10136E-04   816   0.219E-02    0.194E-02
DAV:   6    -0.872599405122E+03    0.28191E-05   -0.13244E-05   816   0.771E-03    0.125E-02
DAV:   7    -0.872599402046E+03    0.30765E-05   -0.50504E-06   728   0.656E-03    0.517E-03
DAV:   8    -0.872599400851E+03    0.11950E-05   -0.28598E-06   608   0.758E-03    0.260E-03
DAV:   9    -0.872599400628E+03    0.22274E-06   -0.31975E-06   648   0.716E-03
  55 F= -.87259940E+03 E0= -.87259940E+03  d E =-.371947E-02
 curvature:  -2.12 expect dE=-0.214E-01 dE for cont linesearch -0.306E-06
 trial: gam= 1.15928 g(F)=  0.101E-01 g(S)=  0.000E+00 ort =-0.799E-04 (trialstep = 0.387E+00)
 search vector abs. value=  0.693E-01
 bond charge predicted
       N       E                     dE             d eps       ncg     rms          rms(c)
DAV:   1    -0.872599159616E+03    0.24123E-03   -0.17201E+00   704   0.262E+00    0.274E-01
DAV:   2    -0.872602358228E+03   -0.31986E-02   -0.36465E-02   808   0.347E-01    0.134E-01
DAV:   3    -0.872602158935E+03    0.19929E-03   -0.68068E-04   816   0.580E-02    0.843E-02
DAV:   4    -0.872602057513E+03    0.10142E-03   -0.72836E-04   808   0.726E-02    0.276E-02
DAV:   5    -0.872602061848E+03   -0.43356E-05   -0.17759E-04   808   0.294E-02    0.268E-02
DAV:   6    -0.872602057226E+03    0.46224E-05   -0.37119E-05   808   0.133E-02    0.149E-02
DAV:   7    -0.872602054836E+03    0.23904E-05   -0.75089E-06   792   0.785E-03    0.630E-03
DAV:   8    -0.872602054431E+03    0.40470E-06   -0.38086E-06   672   0.742E-03
  56 F= -.87260205E+03 E0= -.87260205E+03  d E =-.265380E-02
 trial-energy change:   -0.002654  1 .order   -0.002654   -0.003868   -0.001440
 step:   0.6161(harm=  0.6161)  dis= 0.00984  next Energy=  -872.602481 (dE=-0.308E-02)
 bond charge predicted
       N       E                     dE             d eps       ncg     rms          rms(c)
DAV:   1    -0.872601462122E+03    0.59271E-03   -0.60491E-01   704   0.155E+00    0.162E-01
DAV:   2    -0.872602587251E+03   -0.11251E-02   -0.12827E-02   808   0.206E-01    0.795E-02
DAV:   3    -0.872602515988E+03    0.71263E-04   -0.23791E-04   816   0.344E-02    0.499E-02
DAV:   4    -0.872602478923E+03    0.37065E-04   -0.25711E-04   808   0.434E-02    0.164E-02
DAV:   5    -0.872602480401E+03   -0.14776E-05   -0.64822E-05   808   0.179E-02    0.161E-02
DAV:   6    -0.872602478721E+03    0.16797E-05   -0.13029E-05   816   0.794E-03    0.908E-03
DAV:   7    -0.872602477730E+03    0.99078E-06   -0.23139E-06   552   0.517E-03
  57 F= -.87260248E+03 E0= -.87260248E+03  d E =-.307710E-02
 curvature:  -2.14 expect dE=-0.163E-01 dE for cont linesearch -0.869E-11
 trial: gam= 0.73152 g(F)=  0.763E-02 g(S)=  0.000E+00 ort =-0.531E-06 (trialstep = 0.433E+00)
 search vector abs. value=  0.447E-01
 bond charge predicted
       N       E                     dE             d eps       ncg     rms          rms(c)
DAV:   1    -0.872602651039E+03   -0.17232E-03   -0.13292E+00   704   0.230E+00    0.243E-01
DAV:   2    -0.872605138613E+03   -0.24876E-02   -0.28274E-02   808   0.306E-01    0.119E-01
DAV:   3    -0.872604989608E+03    0.14901E-03   -0.54810E-04   824   0.523E-02    0.748E-02
DAV:   4    -0.872604921702E+03    0.67906E-04   -0.57288E-04   800   0.632E-02    0.251E-02
DAV:   5    -0.872604923647E+03   -0.19446E-05   -0.12466E-04   816   0.250E-02    0.237E-02
DAV:   6    -0.872604920551E+03    0.30957E-05   -0.37085E-05   808   0.133E-02    0.119E-02
DAV:   7    -0.872604919566E+03    0.98564E-06   -0.55212E-06   784   0.548E-03
  58 F= -.87260492E+03 E0= -.87260492E+03  d E =-.244184E-02
 trial-energy change:   -0.002442  1 .order   -0.002465   -0.003302   -0.001629
 step:   0.9499(harm=  0.8539)  dis= 0.01357  next Energy=  -872.605853 (dE=-0.338E-02)
 bond charge predicted
       N       E                     dE             d eps       ncg     rms          rms(c)
DAV:   1    -0.872602367260E+03    0.25533E-02   -0.19001E+00   704   0.275E+00    0.291E-01
DAV:   2    -0.872605924461E+03   -0.35572E-02   -0.40472E-02   808   0.366E-01    0.142E-01
DAV:   3    -0.872605710161E+03    0.21430E-03   -0.78817E-04   824   0.629E-02    0.894E-02
DAV:   4    -0.872605610244E+03    0.99917E-04   -0.81353E-04   800   0.757E-02    0.300E-02
DAV:   5    -0.872605613199E+03   -0.29548E-05   -0.18070E-04   816   0.301E-02    0.285E-02
DAV:   6    -0.872605608689E+03    0.45099E-05   -0.52169E-05   808   0.158E-02    0.144E-02
DAV:   7    -0.872605607315E+03    0.13737E-05   -0.77646E-06   784   0.671E-03    0.716E-03
DAV:   8    -0.872605607480E+03   -0.16527E-06   -0.27360E-06   576   0.562E-03
  59 F= -.87260561E+03 E0= -.87260561E+03  d E =-.312975E-02
 curvature:  -2.37 expect dE=-0.261E-01 dE for cont linesearch -0.577E-04
 trial: gam= 1.55299 g(F)=  0.110E-01 g(S)=  0.000E+00 ort =-0.104E-02 (trialstep = 0.207E+00)
 search vector abs. value=  0.116E+00
 bond charge predicted
       N       E                     dE             d eps       ncg     rms          rms(c)
DAV:   1    -0.872605868029E+03   -0.26071E-03   -0.81788E-01   704   0.180E+00    0.169E-01
DAV:   2    -0.872607363041E+03   -0.14950E-02   -0.16759E-02   800   0.235E-01    0.900E-02
DAV:   3    -0.872607282253E+03    0.80788E-04   -0.30130E-04   816   0.373E-02    0.573E-02
DAV:   4    -0.872607236115E+03    0.46138E-04   -0.32395E-04   800   0.498E-02    0.182E-02
DAV:   5    -0.872607239420E+03   -0.33055E-05   -0.84858E-05   816   0.196E-02    0.184E-02
DAV:   6    -0.872607237121E+03    0.22999E-05   -0.15062E-05   800   0.833E-03    0.106E-02
DAV:   7    -0.872607235956E+03    0.11642E-05   -0.46214E-06   760   0.530E-03    0.391E-03
DAV:   8    -0.872607236003E+03   -0.46472E-07   -0.17908E-06   512   0.419E-03
  60 F= -.87260724E+03 E0= -.87260724E+03  d E =-.162852E-02
 trial-energy change:   -0.001629  1 .order   -0.001625   -0.001946   -0.001303
 step:   0.6278(harm=  0.6278)  dis= 0.01349  next Energy=  -872.608553 (dE=-0.295E-02)
 bond charge predicted
       N       E                     dE             d eps       ncg     rms          rms(c)
DAV:   1    -0.872602927991E+03    0.43080E-02   -0.33617E+00   704   0.365E+00    0.344E-01
DAV:   2    -0.872609074954E+03   -0.61470E-02   -0.68950E-02   800   0.477E-01    0.183E-01
DAV:   3    -0.872608738881E+03    0.33607E-03   -0.12420E-03   816   0.758E-02    0.116E-01
DAV:   4    -0.872608543410E+03    0.19547E-03   -0.13441E-03   800   0.101E-01    0.373E-02
DAV:   5    -0.872608556035E+03   -0.12626E-04   -0.35194E-04   816   0.399E-02    0.375E-02
DAV:   6    -0.872608546003E+03    0.10032E-04   -0.63208E-05   808   0.171E-02    0.216E-02
DAV:   7    -0.872608540532E+03    0.54717E-05   -0.19504E-05   784   0.110E-02    0.793E-03
DAV:   8    -0.872608540414E+03    0.11758E-06   -0.84532E-06   808   0.875E-03
  61 F= -.87260854E+03 E0= -.87260854E+03  d E =-.293293E-02
 curvature:  -3.87 expect dE=-0.358E-01 dE for cont linesearch -0.179E-05
 trial: gam= 0.55843 g(F)=  0.925E-02 g(S)=  0.000E+00 ort =-0.232E-03 (trialstep = 0.291E+00)
 search vector abs. value=  0.451E-01
 bond charge predicted
       N       E                     dE             d eps       ncg     rms          rms(c)
DAV:   1    -0.872609639929E+03   -0.10994E-02   -0.61679E-01   704   0.157E+00    0.175E-01
DAV:   2    -0.872610797805E+03   -0.11579E-02   -0.13238E-02   808   0.210E-01    0.835E-02
DAV:   3    -0.872610710881E+03    0.86923E-04   -0.25010E-04   824   0.364E-02    0.515E-02
DAV:   4    -0.872610673366E+03    0.37515E-04   -0.30290E-04   800   0.445E-02    0.179E-02
DAV:   5    -0.872610673237E+03    0.12910E-06   -0.65316E-05   824   0.184E-02    0.171E-02
DAV:   6    -0.872610671276E+03    0.19612E-05   -0.17072E-05   800   0.919E-03    0.895E-03
DAV:   7    -0.872610670425E+03    0.85097E-06   -0.25683E-06   592   0.520E-03
  62 F= -.87261067E+03 E0= -.87261067E+03  d E =-.213001E-02
 trial-energy change:   -0.002130  1 .order   -0.002121   -0.002659   -0.001582
 step:   0.6732(harm=  0.7193)  dis= 0.00798  next Energy=  -872.611728 (dE=-0.319E-02)
 bond charge predicted
       N       E                     dE             d eps       ncg     rms          rms(c)
DAV:   1    -0.872610018284E+03    0.65299E-03   -0.10579E+00   704   0.205E+00    0.229E-01
DAV:   2    -0.872612006827E+03   -0.19885E-02   -0.22780E-02   808   0.276E-01    0.110E-01
DAV:   3    -0.872611854560E+03    0.15227E-03   -0.43373E-04   832   0.483E-02    0.676E-02
DAV:   4    -0.872611786685E+03    0.67876E-04   -0.52753E-04   800   0.590E-02    0.240E-02
DAV:   5    -0.872611786113E+03    0.57180E-06   -0.11517E-04   824   0.246E-02    0.227E-02
DAV:   6    -0.872611782533E+03    0.35799E-05   -0.30242E-05   808   0.123E-02    0.120E-02
DAV:   7    -0.872611781074E+03    0.14591E-05   -0.49000E-06   728   0.728E-03    0.544E-03
DAV:   8    -0.872611780951E+03    0.12258E-06   -0.27153E-06   552   0.726E-03
  63 F= -.87261178E+03 E0= -.87261178E+03  d E =-.324054E-02
 curvature:  -1.76 expect dE=-0.113E-01 dE for cont linesearch -0.740E-05
 trial: gam= 0.68551 g(F)=  0.642E-02 g(S)=  0.000E+00 ort = 0.436E-03 (trialstep = 0.368E+00)
 search vector abs. value=  0.282E-01
 bond charge predicted
       N       E                     dE             d eps       ncg     rms          rms(c)
DAV:   1    -0.872612515503E+03   -0.73443E-03   -0.60805E-01   704   0.156E+00    0.176E-01
DAV:   2    -0.872613651760E+03   -0.11363E-02   -0.13165E-02   800   0.210E-01    0.827E-02
DAV:   3    -0.872613554924E+03    0.96836E-04   -0.26103E-04   824   0.389E-02    0.507E-02
DAV:   4    -0.872613504265E+03    0.50659E-04   -0.26943E-04   800   0.470E-02    0.162E-02
DAV:   5    -0.872613506321E+03   -0.20559E-05   -0.82690E-05   816   0.203E-02    0.176E-02
DAV:   6    -0.872613504236E+03    0.20849E-05   -0.12328E-05   800   0.750E-03    0.117E-02
DAV:   7    -0.872613501946E+03    0.22897E-05   -0.26038E-06   592   0.563E-03    0.519E-03
DAV:   8    -0.872613501055E+03    0.89129E-06   -0.26745E-06   576   0.672E-03
  64 F= -.87261350E+03 E0= -.87261350E+03  d E =-.172010E-02
 trial-energy change:   -0.001720  1 .order   -0.001709   -0.002471   -0.000947
 step:   0.5814(harm=  0.5961)  dis= 0.00530  next Energy=  -872.613778 (dE=-0.200E-02)
 bond charge predicted
       N       E                     dE             d eps       ncg     rms          rms(c)
DAV:   1    -0.872613456893E+03    0.45054E-04   -0.20496E-01   704   0.903E-01    0.102E-01
DAV:   2    -0.872613838942E+03   -0.38205E-03   -0.44311E-03   800   0.122E-01    0.478E-02
DAV:   3    -0.872613805461E+03    0.33480E-04   -0.86124E-05   832   0.223E-02    0.293E-02
DAV:   4    -0.872613786901E+03    0.18561E-04   -0.89739E-05   808   0.279E-02    0.939E-03
DAV:   5    -0.872613787604E+03   -0.70370E-06   -0.30267E-05   808   0.124E-02    0.104E-02
DAV:   6    -0.872613786842E+03    0.76233E-06   -0.41731E-06   712   0.446E-03
  65 F= -.87261379E+03 E0= -.87261379E+03  d E =-.200589E-02
 curvature:  -1.25 expect dE=-0.619E-02 dE for cont linesearch -0.353E-06
 trial: gam= 0.83815 g(F)=  0.497E-02 g(S)=  0.000E+00 ort = 0.894E-04 (trialstep = 0.411E+00)
 search vector abs. value=  0.249E-01
 bond charge predicted
       N       E                     dE             d eps       ncg     rms          rms(c)
DAV:   1    -0.872614214952E+03   -0.42735E-03   -0.68502E-01   704   0.164E+00    0.167E-01
DAV:   2    -0.872615502996E+03   -0.12880E-02   -0.14505E-02   800   0.218E-01    0.837E-02
DAV:   3    -0.872615421440E+03    0.81557E-04   -0.25250E-04   824   0.353E-02    0.519E-02
DAV:   4    -0.872615383317E+03    0.38123E-04   -0.29174E-04   792   0.450E-02    0.167E-02
DAV:   5    -0.872615385194E+03   -0.18772E-05   -0.68285E-05   816   0.179E-02    0.164E-02
DAV:   6    -0.872615383757E+03    0.14372E-05   -0.14827E-05   792   0.829E-03    0.874E-03
DAV:   7    -0.872615383264E+03    0.49277E-06   -0.29755E-06   568   0.444E-03
  66 F= -.87261538E+03 E0= -.87261538E+03  d E =-.159642E-02
 trial-energy change:   -0.001596  1 .order   -0.001592   -0.002070   -0.001114
 step:   0.8624(harm=  0.8891)  dis= 0.00806  next Energy=  -872.616003 (dE=-0.222E-02)
 reached required accuracy - stopping structural energy minimisation
Running "mpirun -np 48 vasp"
