 112 112   0   0
  0.2170079E+02  0.1372957E-08  0.1373220E-08  0.1489038E-08  0.5000000E-15
  1.000000000000000E-004
  CAR 
 unknown system                          
      8.28405608    -23.94448075  301     -1.91829011      1.00000000
    -23.944  0.0000E+00  0.0000E+00
    -23.837  0.0000E+00  0.0000E+00
    -23.730  0.0000E+00  0.0000E+00
    -23.622  0.0000E+00  0.0000E+00
    -23.515  0.0000E+00  0.0000E+00
    -23.407  0.0000E+00  0.0000E+00
    -23.300  0.0000E+00  0.0000E+00
    -23.192  0.0000E+00  0.0000E+00
    -23.085  0.0000E+00  0.0000E+00
    -22.978  0.3481E-13  0.3739E-14
    -22.870  0.6147E-09  0.6604E-10
    -22.763  0.1152E-05  0.1239E-06
    -22.655  0.2393E-03  0.2583E-04
    -22.548  0.5971E-02  0.6673E-03
    -22.440  0.2021E-01  0.2839E-02
    -22.333  0.1010E-01  0.3923E-02
    -22.226  0.7431E-03  0.4003E-02
    -22.118  0.2110E-02  0.4230E-02
    -22.011  0.1628E-01  0.5979E-02
    -21.903  0.3084E-01  0.9292E-02
    -21.796  0.6008E-01  0.1575E-01
    -21.688  0.8136E-01  0.2449E-01
    -21.581  0.6938E-01  0.3194E-01
    -21.474  0.6845E-01  0.3929E-01
    -21.366  0.9528E-01  0.4953E-01
    -21.259  0.1179E+00  0.6219E-01
    -21.151  0.7424E-01  0.7016E-01
    -21.044  0.6726E-01  0.7739E-01
    -20.936  0.1145E+00  0.8969E-01
    -20.829  0.1104E+00  0.1016E+00
    -20.722  0.7081E-01  0.1092E+00
    -20.614  0.5984E-01  0.1156E+00
    -20.507  0.6504E-01  0.1226E+00
    -20.399  0.8367E-01  0.1316E+00
    -20.292  0.8622E-01  0.1408E+00
    -20.184  0.9234E-01  0.1507E+00
    -20.077  0.2605E+00  0.1787E+00
    -19.970  0.4745E+00  0.2297E+00
    -19.862  0.3062E+00  0.2626E+00
    -19.755  0.1066E+00  0.2741E+00
    -19.647  0.1738E-01  0.2759E+00
    -19.540  0.7348E-03  0.2760E+00
    -19.432  0.1783E-02  0.2762E+00
    -19.325  0.1474E-01  0.2778E+00
    -19.218  0.1772E-01  0.2797E+00
    -19.110  0.9005E-02  0.2806E+00
    -19.003  0.3395E-01  0.2843E+00
    -18.895  0.3022E-01  0.2875E+00
    -18.788  0.4186E-02  0.2880E+00
    -18.680  0.8046E-04  0.2880E+00
    -18.573  0.1903E-06  0.2880E+00
    -18.466  0.5099E-10  0.2880E+00
    -18.358  0.1472E-14  0.2880E+00
    -18.251  0.0000E+00  0.2880E+00
    -18.143  0.0000E+00  0.2880E+00
    -18.036  0.0000E+00  0.2880E+00
    -17.928  0.0000E+00  0.2880E+00
    -17.821  0.0000E+00  0.2880E+00
    -17.714  0.0000E+00  0.2880E+00
    -17.606  0.0000E+00  0.2880E+00
    -17.499  0.0000E+00  0.2880E+00
    -17.391  0.0000E+00  0.2880E+00
    -17.284  0.0000E+00  0.2880E+00
    -17.176  0.0000E+00  0.2880E+00
    -17.069  0.0000E+00  0.2880E+00
    -16.962  0.0000E+00  0.2880E+00
    -16.854  0.0000E+00  0.2880E+00
    -16.747  0.0000E+00  0.2880E+00
    -16.639  0.0000E+00  0.2880E+00
    -16.532  0.0000E+00  0.2880E+00
    -16.424  0.0000E+00  0.2880E+00
    -16.317  0.0000E+00  0.2880E+00
    -16.210  0.0000E+00  0.2880E+00
    -16.102  0.0000E+00  0.2880E+00
    -15.995  0.0000E+00  0.2880E+00
    -15.887  0.0000E+00  0.2880E+00
    -15.780  0.0000E+00  0.2880E+00
    -15.672  0.0000E+00  0.2880E+00
    -15.565  0.0000E+00  0.2880E+00
    -15.458  0.0000E+00  0.2880E+00
    -15.350  0.0000E+00  0.2880E+00
    -15.243  0.0000E+00  0.2880E+00
    -15.135  0.0000E+00  0.2880E+00
    -15.028  0.0000E+00  0.2880E+00
    -14.920  0.0000E+00  0.2880E+00
    -14.813  0.0000E+00  0.2880E+00
    -14.706  0.0000E+00  0.2880E+00
    -14.598  0.0000E+00  0.2880E+00
    -14.491  0.0000E+00  0.2880E+00
    -14.383  0.0000E+00  0.2880E+00
    -14.276  0.0000E+00  0.2880E+00
    -14.168  0.0000E+00  0.2880E+00
    -14.061  0.0000E+00  0.2880E+00
    -13.954  0.6201E-17  0.2880E+00
    -13.846  0.5538E-12  0.2880E+00
    -13.739  0.5436E-08  0.2880E+00
    -13.631  0.5711E-05  0.2880E+00
    -13.524  0.6760E-03  0.2881E+00
    -13.416  0.9896E-02  0.2891E+00
    -13.309  0.2027E-01  0.2913E+00
    -13.202  0.6130E-02  0.2920E+00
    -13.094  0.2518E-03  0.2920E+00
    -12.987  0.1245E-05  0.2920E+00
    -12.879  0.6821E-09  0.2920E+00
    -12.772  0.3980E-13  0.2920E+00
    -12.664  0.6180E-11  0.2920E+00
    -12.557  0.3536E-07  0.2920E+00
    -12.450  0.2187E-04  0.2920E+00
    -12.342  0.1551E-02  0.2922E+00
    -12.235  0.1401E-01  0.2937E+00
    -12.127  0.1814E-01  0.2956E+00
    -12.020  0.3434E-02  0.2960E+00
    -11.912  0.1184E-03  0.2960E+00
    -11.805  0.2420E-02  0.2963E+00
    -11.698  0.2442E-01  0.2989E+00
    -11.590  0.3906E-01  0.3031E+00
    -11.483  0.2695E-01  0.3060E+00
    -11.375  0.4801E-01  0.3111E+00
    -11.268  0.4501E-01  0.3160E+00
    -11.160  0.3116E-01  0.3193E+00
    -11.053  0.2036E-01  0.3215E+00
    -10.946  0.3188E-01  0.3249E+00
    -10.838  0.2501E-01  0.3276E+00
    -10.731  0.2341E-01  0.3301E+00
    -10.623  0.7356E-01  0.3380E+00
    -10.516  0.9847E-01  0.3486E+00
    -10.408  0.6355E-01  0.3554E+00
    -10.301  0.3564E-01  0.3593E+00
    -10.194  0.2911E-01  0.3624E+00
    -10.086  0.1622E-01  0.3641E+00
     -9.979  0.1846E-01  0.3661E+00
     -9.871  0.3131E-01  0.3695E+00
     -9.764  0.7627E-01  0.3777E+00
     -9.656  0.8588E-01  0.3869E+00
     -9.549  0.4273E-01  0.3915E+00
     -9.442  0.2200E-01  0.3939E+00
     -9.334  0.2052E-01  0.3961E+00
     -9.227  0.2625E-01  0.3989E+00
     -9.119  0.3857E-01  0.4030E+00
     -9.012  0.3055E-01  0.4063E+00
     -8.904  0.1441E-01  0.4079E+00
     -8.797  0.6133E-02  0.4085E+00
     -8.690  0.3785E-01  0.4126E+00
     -8.582  0.7986E-01  0.4212E+00
     -8.475  0.8337E-01  0.4301E+00
     -8.367  0.8639E-01  0.4394E+00
     -8.260  0.1244E+00  0.4528E+00
     -8.152  0.1551E+00  0.4694E+00
     -8.045  0.1520E+00  0.4858E+00
     -7.938  0.1344E+00  0.5002E+00
     -7.830  0.1746E+00  0.5190E+00
     -7.723  0.1541E+00  0.5355E+00
     -7.615  0.9114E-01  0.5453E+00
     -7.508  0.6771E-01  0.5526E+00
     -7.400  0.7734E-01  0.5609E+00
     -7.293  0.7086E-01  0.5685E+00
     -7.186  0.5703E-01  0.5746E+00
     -7.078  0.3844E-01  0.5788E+00
     -6.971  0.1096E-01  0.5799E+00
     -6.863  0.6447E-03  0.5800E+00
     -6.756  0.7081E-03  0.5801E+00
     -6.648  0.1011E-01  0.5812E+00
     -6.541  0.2228E-01  0.5836E+00
     -6.434  0.2214E-01  0.5859E+00
     -6.326  0.3088E-01  0.5893E+00
     -6.219  0.5693E-01  0.5954E+00
     -6.111  0.6094E-01  0.6019E+00
     -6.004  0.9749E-01  0.6124E+00
     -5.897  0.1790E+00  0.6316E+00
     -5.789  0.1734E+00  0.6502E+00
     -5.682  0.1302E+00  0.6642E+00
     -5.574  0.1166E+00  0.6768E+00
     -5.467  0.7840E-01  0.6852E+00
     -5.359  0.4181E-01  0.6897E+00
     -5.252  0.6091E-01  0.6962E+00
     -5.145  0.9698E-01  0.7066E+00
     -5.037  0.1450E+00  0.7222E+00
     -4.930  0.1700E+00  0.7405E+00
     -4.822  0.1284E+00  0.7543E+00
     -4.715  0.9912E-01  0.7649E+00
     -4.607  0.1658E+00  0.7827E+00
     -4.500  0.2721E+00  0.8119E+00
     -4.393  0.3416E+00  0.8487E+00
     -4.285  0.3194E+00  0.8830E+00
     -4.178  0.2745E+00  0.9124E+00
     -4.070  0.2406E+00  0.9383E+00
     -3.963  0.2444E+00  0.9646E+00
     -3.855  0.2481E+00  0.9912E+00
     -3.748  0.2301E+00  0.1016E+01
     -3.641  0.1865E+00  0.1036E+01
     -3.533  0.1038E+00  0.1047E+01
     -3.426  0.5434E-01  0.1053E+01
     -3.318  0.5262E-01  0.1059E+01
     -3.211  0.1138E+00  0.1071E+01
     -3.103  0.1616E+00  0.1088E+01
     -2.996  0.1671E+00  0.1106E+01
     -2.889  0.1656E+00  0.1124E+01
     -2.781  0.1685E+00  0.1142E+01
     -2.674  0.1280E+00  0.1156E+01
     -2.566  0.3885E-01  0.1160E+01
     -2.459  0.1799E-01  0.1162E+01
     -2.351  0.1691E-01  0.1164E+01
     -2.244  0.2669E-02  0.1164E+01
     -2.137  0.5497E-04  0.1164E+01
     -2.029  0.1318E-06  0.1164E+01
     -1.922  0.3445E-10  0.1164E+01
     -1.814  0.9466E-15  0.1164E+01
     -1.707  0.0000E+00  0.1164E+01
     -1.599  0.0000E+00  0.1164E+01
     -1.492  0.0000E+00  0.1164E+01
     -1.385  0.0000E+00  0.1164E+01
     -1.277  0.0000E+00  0.1164E+01
     -1.170  0.0000E+00  0.1164E+01
     -1.062  0.0000E+00  0.1164E+01
     -0.955  0.0000E+00  0.1164E+01
     -0.847  0.0000E+00  0.1164E+01
     -0.740  0.0000E+00  0.1164E+01
     -0.633  0.0000E+00  0.1164E+01
     -0.525  0.0000E+00  0.1164E+01
     -0.418  0.0000E+00  0.1164E+01
     -0.310  0.0000E+00  0.1164E+01
     -0.203  0.0000E+00  0.1164E+01
     -0.095  0.0000E+00  0.1164E+01
      0.012  0.0000E+00  0.1164E+01
      0.119  0.0000E+00  0.1164E+01
      0.227  0.0000E+00  0.1164E+01
      0.334  0.0000E+00  0.1164E+01
      0.442  0.0000E+00  0.1164E+01
      0.549  0.0000E+00  0.1164E+01
      0.657  0.0000E+00  0.1164E+01
      0.764  0.0000E+00  0.1164E+01
      0.871  0.0000E+00  0.1164E+01
      0.979  0.0000E+00  0.1164E+01
      1.086  0.0000E+00  0.1164E+01
      1.194  0.0000E+00  0.1164E+01
      1.301  0.0000E+00  0.1164E+01
      1.409  0.0000E+00  0.1164E+01
      1.516  0.0000E+00  0.1164E+01
      1.623  0.0000E+00  0.1164E+01
      1.731  0.0000E+00  0.1164E+01
      1.838  0.0000E+00  0.1164E+01
      1.946  0.0000E+00  0.1164E+01
      2.053  0.0000E+00  0.1164E+01
      2.161  0.0000E+00  0.1164E+01
      2.268  0.0000E+00  0.1164E+01
      2.375  0.3162E-15  0.1164E+01
      2.483  0.1421E-10  0.1164E+01
      2.590  0.6703E-07  0.1164E+01
      2.698  0.3431E-04  0.1164E+01
      2.805  0.2028E-02  0.1164E+01
      2.913  0.1544E-01  0.1166E+01
      3.020  0.1697E-01  0.1168E+01
      3.127  0.2713E-02  0.1168E+01
      3.235  0.5655E-04  0.1168E+01
      3.342  0.1651E-06  0.1168E+01
      3.450  0.1842E-04  0.1168E+01
      3.557  0.1411E-02  0.1168E+01
      3.665  0.1460E-01  0.1170E+01
      3.772  0.3094E-01  0.1173E+01
      3.879  0.2371E-01  0.1176E+01
      3.987  0.1507E-01  0.1177E+01
      4.094  0.2129E-01  0.1179E+01
      4.202  0.2412E-01  0.1182E+01
      4.309  0.5661E-01  0.1188E+01
      4.417  0.3759E-01  0.1192E+01
      4.524  0.2372E-01  0.1195E+01
      4.631  0.2516E-01  0.1197E+01
      4.739  0.3879E-01  0.1202E+01
      4.846  0.2274E-01  0.1204E+01
      4.954  0.3079E-01  0.1207E+01
      5.061  0.7875E-01  0.1216E+01
      5.169  0.1289E+00  0.1230E+01
      5.276  0.1176E+00  0.1242E+01
      5.383  0.4846E-01  0.1248E+01
      5.491  0.2183E-01  0.1250E+01
      5.598  0.2262E-01  0.1252E+01
      5.706  0.3661E-01  0.1256E+01
      5.813  0.6014E-01  0.1263E+01
      5.921  0.5681E-01  0.1269E+01
      6.028  0.7082E-01  0.1276E+01
      6.135  0.8251E-01  0.1285E+01
      6.243  0.1369E+00  0.1300E+01
      6.350  0.1694E+00  0.1318E+01
      6.458  0.1638E+00  0.1336E+01
      6.565  0.1954E+00  0.1357E+01
      6.673  0.1919E+00  0.1377E+01
      6.780  0.1834E+00  0.1397E+01
      6.887  0.8919E-01  0.1407E+01
      6.995  0.1221E-01  0.1408E+01
      7.102  0.3322E-03  0.1408E+01
      7.210  0.1334E-05  0.1408E+01
      7.317  0.6557E-09  0.1408E+01
      7.425  0.3579E-13  0.1408E+01
      7.532  0.0000E+00  0.1408E+01
      7.639  0.0000E+00  0.1408E+01
      7.747  0.0000E+00  0.1408E+01
      7.854  0.0000E+00  0.1408E+01
      7.962  0.0000E+00  0.1408E+01
      8.069  0.0000E+00  0.1408E+01
      8.177  0.0000E+00  0.1408E+01
      8.284  0.0000E+00  0.1408E+01
