<?xml version="1.0" encoding="ISO-8859-1"?>
<modeling>
 <generator>
  <i name="program" type="string">vasp </i>
  <i name="version" type="string">5.4.1  </i>
  <i name="subversion" type="string">05Feb16 (build Feb 08 2018 09:21:51) complex                          parallel </i>
  <i name="platform" type="string">LinuxIFC </i>
  <i name="date" type="string">2019 10 17 </i>
  <i name="time" type="string">09:33:46 </i>
 </generator>
 <incar>
  <i type="string" name="PREC">normal</i>
  <i type="int" name="IBRION">     2</i>
  <i name="EDIFF">      0.00000100</i>
  <i name="EDIFFG">     -0.05000000</i>
  <i type="int" name="NSW">   500</i>
  <i name="ENCUT">    400.00000000</i>
  <i type="string" name="LREAL"> A</i>
  <i type="int" name="ISMEAR">     0</i>
  <i name="SIGMA">      0.10000000</i>
  <i type="logical" name="LWAVE"> F  </i>
  <i type="logical" name="LCHARG"> F  </i>
  <v type="int" name="KPOINT_BSE">    -1     0     0     0</v>
 </incar>
 <kpoints>
  <generation param="Monkhorst-Pack">
   <v type="int" name="divisions">       1        1        1 </v>
   <v name="usershift">      0.00000000       0.00000000       0.00000000 </v>
   <v name="genvec1">      1.00000000      -0.00000000       0.00000000 </v>
   <v name="genvec2">      0.00000000       1.00000000      -0.00000000 </v>
   <v name="genvec3">     -0.00000000       0.00000000       1.00000000 </v>
   <v name="shift">      0.00000000       0.00000000       0.00000000 </v>
  </generation>
  <varray name="kpointlist" >
   <v>       0.00000000       0.00000000       0.00000000 </v>
  </varray>
  <varray name="weights" >
   <v>       1.00000000 </v>
  </varray>
 </kpoints>
 <parameters>
  <separator name="general" >
   <i type="string" name="SYSTEM">unknown system</i>
   <i type="logical" name="LCOMPAT"> F  </i>
  </separator>
  <separator name="electronic" >
   <i type="string" name="PREC">normal</i>
   <i name="ENMAX">    400.00000000</i>
   <i name="ENAUG">    644.87300000</i>
   <i name="EDIFF">      0.00000100</i>
   <i type="int" name="IALGO">    38</i>
   <i type="int" name="IWAVPR">    11</i>
   <i type="int" name="NBANDS">   352</i>
   <i name="NELECT">    582.00000000</i>
   <i type="int" name="TURBO">     0</i>
   <i type="int" name="IRESTART">     0</i>
   <i type="int" name="NREBOOT">     0</i>
   <i type="int" name="NMIN">     0</i>
   <i name="EREF">      0.00000000</i>
   <separator name="electronic smearing" >
    <i type="int" name="ISMEAR">     0</i>
    <i name="SIGMA">      0.10000000</i>
    <i name="KSPACING">      0.50000000</i>
    <i type="logical" name="KGAMMA"> T  </i>
   </separator>
   <separator name="electronic projectors" >
    <i type="logical" name="LREAL"> T  </i>
    <v name="ROPT">     -0.00050000     -0.00050000     -0.00050000     -0.00050000     -0.00050000</v>
    <i type="int" name="LMAXPAW">  -100</i>
    <i type="int" name="LMAXMIX">     2</i>
    <i type="logical" name="NLSPLINE"> F  </i>
   </separator>
   <separator name="electronic startup" >
    <i type="int" name="ISTART">     0</i>
    <i type="int" name="ICHARG">     2</i>
    <i type="int" name="INIWAV">     1</i>
   </separator>
   <separator name="electronic spin" >
    <i type="int" name="ISPIN">     1</i>
    <i type="logical" name="LNONCOLLINEAR"> F  </i>
    <v name="MAGMOM">      1.00000000      1.00000000      1.00000000      1.00000000      1.00000000      1.00000000      1.00000000      1.00000000      1.00000000      1.00000000      1.00000000      1.00000000      1.00000000      1.00000000      1.00000000      1.00000000      1.00000000      1.00000000      1.00000000      1.00000000
      1.00000000      1.00000000      1.00000000      1.00000000      1.00000000      1.00000000      1.00000000      1.00000000      1.00000000      1.00000000      1.00000000      1.00000000      1.00000000      1.00000000      1.00000000      1.00000000      1.00000000      1.00000000      1.00000000      1.00000000
      1.00000000      1.00000000      1.00000000      1.00000000      1.00000000      1.00000000      1.00000000      1.00000000      1.00000000      1.00000000      1.00000000      1.00000000      1.00000000      1.00000000      1.00000000      1.00000000      1.00000000      1.00000000      1.00000000      1.00000000
      1.00000000      1.00000000      1.00000000      1.00000000      1.00000000      1.00000000      1.00000000      1.00000000      1.00000000      1.00000000      1.00000000      1.00000000      1.00000000      1.00000000      1.00000000      1.00000000      1.00000000      1.00000000      1.00000000      1.00000000
      1.00000000      1.00000000      1.00000000      1.00000000      1.00000000      1.00000000      1.00000000      1.00000000      1.00000000      1.00000000      1.00000000      1.00000000      1.00000000      1.00000000      1.00000000      1.00000000      1.00000000      1.00000000      1.00000000      1.00000000
      1.00000000      1.00000000      1.00000000      1.00000000      1.00000000      1.00000000      1.00000000      1.00000000      1.00000000      1.00000000      1.00000000      1.00000000</v>
    <i name="NUPDOWN">     -1.00000000</i>
    <i type="logical" name="LSORBIT"> F  </i>
    <v name="SAXIS">      0.00000000      0.00000000      1.00000000</v>
    <i type="logical" name="LSPIRAL"> F  </i>
    <v name="QSPIRAL">      0.00000000      0.00000000      0.00000000</v>
    <i type="logical" name="LZEROZ"> F  </i>
   </separator>
   <separator name="electronic exchange-correlation" >
    <i type="logical" name="LASPH"> F  </i>
    <i type="logical" name="LMETAGGA"> F  </i>
   </separator>
   <separator name="electronic convergence" >
    <i type="int" name="NELM">    60</i>
    <i type="int" name="NELMDL">    -5</i>
    <i type="int" name="NELMIN">     2</i>
    <i name="ENINI">    400.00000000</i>
    <separator name="electronic convergence detail" >
     <i type="logical" name="LDIAG"> T  </i>
     <i type="logical" name="LSUBROT"> F  </i>
     <i name="WEIMIN">      0.00100000</i>
     <i name="EBREAK">      0.00000000</i>
     <i name="DEPER">      0.30000000</i>
     <i type="int" name="NRMM">     4</i>
     <i name="TIME">      0.40000000</i>
    </separator>
   </separator>
   <separator name="electronic mixer" >
    <i name="AMIX">      0.40000000</i>
    <i name="BMIX">      1.00000000</i>
    <i name="AMIN">      0.10000000</i>
    <i name="AMIX_MAG">      1.60000000</i>
    <i name="BMIX_MAG">      1.00000000</i>
    <separator name="electronic mixer details" >
     <i type="int" name="IMIX">     4</i>
     <i type="logical" name="MIXFIRST"> F  </i>
     <i type="int" name="MAXMIX">   -45</i>
     <i name="WC">    100.00000000</i>
     <i type="int" name="INIMIX">     1</i>
     <i type="int" name="MIXPRE">     1</i>
     <i type="int" name="MREMOVE">     5</i>
    </separator>
   </separator>
   <separator name="electronic dipolcorrection" >
    <i type="logical" name="LDIPOL"> F  </i>
    <i type="logical" name="LMONO"> F  </i>
    <i type="int" name="IDIPOL">     0</i>
    <i name="EPSILON">      1.00000000</i>
    <v name="DIPOL">   -100.00000000   -100.00000000   -100.00000000</v>
    <i name="EFIELD">      0.00000000</i>
   </separator>
  </separator>
  <separator name="grids" >
   <i type="int" name="NGX">    70</i>
   <i type="int" name="NGY">    70</i>
   <i type="int" name="NGZ">    80</i>
   <i type="int" name="NGXF">   140</i>
   <i type="int" name="NGYF">   140</i>
   <i type="int" name="NGZF">   160</i>
   <i type="logical" name="ADDGRID"> F  </i>
  </separator>
  <separator name="ionic" >
   <i type="int" name="NSW">   500</i>
   <i type="int" name="IBRION">     2</i>
   <i type="int" name="ISIF">     2</i>
   <i name="PSTRESS">      0.00000000</i>
   <i name="EDIFFG">     -0.05000000</i>
   <i type="int" name="NFREE">     1</i>
   <i name="POTIM">      0.50000000</i>
   <i name="SMASS">     -3.00000000</i>
   <i name="SCALEE">      1.00000000</i>
  </separator>
  <separator name="ionic md" >
   <i name="TEBEG">      0.00010000</i>
   <i name="TEEND">      0.00010000</i>
   <i type="int" name="NBLOCK">     1</i>
   <i type="int" name="KBLOCK">   500</i>
   <i type="int" name="NPACO">   256</i>
   <i name="APACO">     16.00000000</i>
  </separator>
  <separator name="symmetry" >
   <i type="int" name="ISYM">     2</i>
   <i name="SYMPREC">      0.00001000</i>
  </separator>
  <separator name="dos" >
   <i type="logical" name="LORBIT"> F  </i>
   <v name="RWIGS">     -1.00000000     -1.00000000     -1.00000000     -1.00000000     -1.00000000</v>
   <i type="int" name="NEDOS">   301</i>
   <i name="EMIN">     10.00000000</i>
   <i name="EMAX">    -10.00000000</i>
   <i name="EFERMI">      0.00000000</i>
  </separator>
  <separator name="writing" >
   <i type="int" name="NWRITE">     2</i>
   <i type="logical" name="LWAVE"> F  </i>
   <i type="logical" name="LCHARG"> F  </i>
   <i type="logical" name="LPARD"> F  </i>
   <i type="logical" name="LVTOT"> F  </i>
   <i type="logical" name="LVHAR"> F  </i>
   <i type="logical" name="LELF"> F  </i>
   <i type="logical" name="LOPTICS"> F  </i>
   <v name="STM">      0.00000000      0.00000000      0.00000000      0.00000000      0.00000000      0.00000000      0.00000000</v>
  </separator>
  <separator name="performance" >
   <i type="int" name="NPAR">     8</i>
   <i type="int" name="NSIM">     4</i>
   <i type="int" name="NBLK">    -1</i>
   <i type="logical" name="LPLANE"> T  </i>
   <i type="logical" name="LSCALAPACK"> F  </i>
   <i type="logical" name="LSCAAWARE"> F  </i>
   <i type="logical" name="LSCALU"> F  </i>
   <i type="logical" name="LASYNC"> F  </i>
   <i type="logical" name="LORBITALREAL"> F  </i>
  </separator>
  <separator name="miscellaneous" >
   <i type="int" name="IDIOT">     3</i>
   <i type="logical" name="LMUSIC"> F  </i>
   <v name="POMASS">     26.98100000     12.01100000      1.00000000     16.00000000     28.08500000</v>
   <v name="DARWINR">      0.00000000      0.00000000      0.00000000      0.00000000      0.00000000</v>
   <v name="DARWINV">      1.00000000      1.00000000      1.00000000      1.00000000      1.00000000</v>
   <i type="logical" name="LCORR"> T  </i>
  </separator>
  <i type="logical" name="GGA_COMPAT"> T  </i>
  <i type="logical" name="LBERRY"> F  </i>
  <i type="int" name="ICORELEVEL">     0</i>
  <i type="logical" name="LDAU"> F  </i>
  <i type="int" name="I_CONSTRAINED_M">     0</i>
  <separator name="electronic exchange-correlation" >
   <i type="string" name="GGA">--</i>
   <i type="int" name="VOSKOWN">     0</i>
   <i type="logical" name="LHFCALC"> F  </i>
   <i type="string" name="PRECFOCK"></i>
   <i type="logical" name="LSYMGRAD"> F  </i>
   <i type="logical" name="LHFONE"> F  </i>
   <i type="logical" name="LRHFCALC"> F  </i>
   <i type="logical" name="LTHOMAS"> F  </i>
   <i type="logical" name="LMODELHF"> F  </i>
   <i name="ENCUT4O">     -1.00000000</i>
   <i type="int" name="EXXOEP">     0</i>
   <i type="int" name="FOURORBIT">     0</i>
   <i name="AEXX">      0.00000000</i>
   <i name="HFALPHA">      0.00000000</i>
   <i name="MCALPHA">      0.00000000</i>
   <i name="ALDAX">      1.00000000</i>
   <i name="AGGAX">      1.00000000</i>
   <i name="ALDAC">      1.00000000</i>
   <i name="AGGAC">      1.00000000</i>
   <i type="int" name="NKREDX">     1</i>
   <i type="int" name="NKREDY">     1</i>
   <i type="int" name="NKREDZ">     1</i>
   <i type="logical" name="SHIFTRED"> F  </i>
   <i type="logical" name="ODDONLY"> F  </i>
   <i type="logical" name="EVENONLY"> F  </i>
   <i type="int" name="LMAXFOCK">     0</i>
   <i type="int" name="NMAXFOCKAE">     0</i>
   <i type="logical" name="LFOCKAEDFT"> F  </i>
   <i name="HFSCREEN">      0.00000000</i>
   <i name="HFSCREENC">      0.00000000</i>
   <i type="int" name="NBANDSGWLOW">     0</i>
  </separator>
  <separator name="vdW DFT" >
   <i type="logical" name="LUSE_VDW"> F  </i>
   <i name="Zab_VDW">     -0.84910000</i>
   <i name="PARAM1">      0.12340000</i>
   <i name="PARAM2">      1.00000000</i>
   <i name="PARAM3">      0.00000000</i>
  </separator>
  <separator name="model GW" >
   <i type="int" name="MODEL_GW">     0</i>
   <i name="MODEL_EPS0">     13.02047138</i>
   <i name="MODEL_ALPHA">      1.00000000</i>
  </separator>
  <separator name="linear response parameters" >
   <i type="logical" name="LEPSILON"> F  </i>
   <i type="logical" name="LRPA"> F  </i>
   <i type="logical" name="LNABLA"> F  </i>
   <i type="logical" name="LVEL"> F  </i>
   <i type="int" name="KINTER">     0</i>
   <i name="CSHIFT">      0.10000000</i>
   <i name="OMEGAMAX">     -1.00000000</i>
   <i name="DEG_THRESHOLD">      0.00200000</i>
  </separator>
  <separator name="orbital magnetization" >
   <i type="logical" name="NUCIND"> F  </i>
   <v name="MAGPOS">      0.00000000      0.00000000      0.00000000</v>
   <i type="logical" name="LNICSALL"> T  </i>
   <i type="logical" name="ORBITALMAG"> F  </i>
   <i type="logical" name="LMAGBLOCH"> F  </i>
   <i type="logical" name="LCHIMAG"> F  </i>
   <i type="logical" name="LGAUGE"> T  </i>
   <i type="int" name="MAGATOM">     0</i>
   <v name="MAGDIPOL">      0.00000000      0.00000000      0.00000000</v>
   <v name="AVECCONST">      0.00000000      0.00000000      0.00000000</v>
  </separator>
  <separator name="response functions" >
   <i type="logical" name="LADDER"> F  </i>
   <i type="logical" name="LFXC"> F  </i>
   <i type="logical" name="LHARTREE"> T  </i>
   <i type="int" name="IBSE">     0</i>
   <v type="int" name="KPOINT">    -1     0     0     0</v>
   <i type="logical" name="LTCTE"> F  </i>
   <i type="logical" name="LTETE"> F  </i>
   <i type="logical" name="LTRIPLET"> F  </i>
   <i type="logical" name="LFXCEPS"> F  </i>
   <i type="logical" name="LFXHEG"> F  </i>
   <i type="int" name="NATURALO">     0</i>
   <i type="logical" name="L2ORDER"> F  </i>
   <i type="logical" name="LUSEW"> F  </i>
   <i name="ENCUTGW">     -2.00000000</i>
   <i name="ENCUTGWSOFT">     -2.00000000</i>
   <i name="ENCUTLF">     -1.00000000</i>
   <i type="int" name="LMAXMP2">    -1</i>
   <i name="SCISSOR">      0.00000000</i>
   <i type="int" name="NOMEGA">     0</i>
   <i type="int" name="NOMEGAR">     0</i>
   <i type="int" name="NBANDSGW">    -1</i>
   <i type="int" name="NBANDSO">    -1</i>
   <i type="int" name="NBANDSV">    -1</i>
   <i type="int" name="NELM">     1</i>
   <i type="int" name="NELMHF">     1</i>
   <i type="int" name="DIM">     3</i>
   <i type="int" name="ANTIRES">     0</i>
   <i name="OMEGAMAX">    -30.00000000</i>
   <i name="OMEGAMIN">    -30.00000000</i>
   <i name="OMEGATL">   -200.00000000</i>
   <i type="int" name="OMEGAGRID">     0</i>
   <i name="CSHIFT">     -0.10000000</i>
   <i type="logical" name="SELFENERGY"> F  </i>
   <i type="logical" name="LSPECTRAL"> F  </i>
   <i type="logical" name="LSPECTRALGW"> F  </i>
   <i type="logical" name="LSINGLES"> F  </i>
   <i type="logical" name="LFERMIGW"> F  </i>
   <i type="logical" name="ODDONLYGW"> F  </i>
   <i type="logical" name="EVENONLYGW"> F  </i>
   <i type="int" name="NKREDLFX">     1</i>
   <i type="int" name="NKREDLFY">     1</i>
   <i type="int" name="NKREDLFZ">     1</i>
   <i type="int" name="MAXMEM">  1800</i>
   <i type="int" name="TELESCOPE">     0</i>
   <i type="int" name="TAUPAR">     1</i>
   <i type="int" name="OMEGAPAR">    -1</i>
   <i name="LAMBDA">      1.00000000</i>
  </separator>
  <separator name="External order field" >
   <i name="OFIELD_KAPPA">      0.00000000</i>
   <v name="OFIELD_K">      0.00000000      0.00000000      0.00000000</v>
   <i name="OFIELD_Q6_NEAR">      0.00000000</i>
   <i name="OFIELD_Q6_FAR">      0.00000000</i>
   <i name="OFIELD_A">      0.00000000</i>
  </separator>
 </parameters>
 <atominfo>
  <atoms>     112 </atoms>
  <types>       5 </types>
  <array name="atoms" >
   <dimension dim="1">ion</dimension>
   <field type="string">element</field>
   <field type="int">atomtype</field>
   <set>
    <rc><c>Al</c><c>   1</c></rc>
    <rc><c>C </c><c>   2</c></rc>
    <rc><c>H </c><c>   3</c></rc>
    <rc><c>H </c><c>   3</c></rc>
    <rc><c>H </c><c>   3</c></rc>
    <rc><c>O </c><c>   4</c></rc>
    <rc><c>O </c><c>   4</c></rc>
    <rc><c>O </c><c>   4</c></rc>
    <rc><c>O </c><c>   4</c></rc>
    <rc><c>O </c><c>   4</c></rc>
    <rc><c>O </c><c>   4</c></rc>
    <rc><c>O </c><c>   4</c></rc>
    <rc><c>O </c><c>   4</c></rc>
    <rc><c>O </c><c>   4</c></rc>
    <rc><c>O </c><c>   4</c></rc>
    <rc><c>O </c><c>   4</c></rc>
    <rc><c>O </c><c>   4</c></rc>
    <rc><c>O </c><c>   4</c></rc>
    <rc><c>O </c><c>   4</c></rc>
    <rc><c>O </c><c>   4</c></rc>
    <rc><c>O </c><c>   4</c></rc>
    <rc><c>O </c><c>   4</c></rc>
    <rc><c>O </c><c>   4</c></rc>
    <rc><c>O </c><c>   4</c></rc>
    <rc><c>O </c><c>   4</c></rc>
    <rc><c>O </c><c>   4</c></rc>
    <rc><c>O </c><c>   4</c></rc>
    <rc><c>O </c><c>   4</c></rc>
    <rc><c>O </c><c>   4</c></rc>
    <rc><c>O </c><c>   4</c></rc>
    <rc><c>O </c><c>   4</c></rc>
    <rc><c>O </c><c>   4</c></rc>
    <rc><c>O </c><c>   4</c></rc>
    <rc><c>O </c><c>   4</c></rc>
    <rc><c>O </c><c>   4</c></rc>
    <rc><c>O </c><c>   4</c></rc>
    <rc><c>O </c><c>   4</c></rc>
    <rc><c>O </c><c>   4</c></rc>
    <rc><c>O </c><c>   4</c></rc>
    <rc><c>O </c><c>   4</c></rc>
    <rc><c>O </c><c>   4</c></rc>
    <rc><c>O </c><c>   4</c></rc>
    <rc><c>O </c><c>   4</c></rc>
    <rc><c>O </c><c>   4</c></rc>
    <rc><c>O </c><c>   4</c></rc>
    <rc><c>O </c><c>   4</c></rc>
    <rc><c>O </c><c>   4</c></rc>
    <rc><c>O </c><c>   4</c></rc>
    <rc><c>O </c><c>   4</c></rc>
    <rc><c>O </c><c>   4</c></rc>
    <rc><c>O </c><c>   4</c></rc>
    <rc><c>O </c><c>   4</c></rc>
    <rc><c>O </c><c>   4</c></rc>
    <rc><c>O </c><c>   4</c></rc>
    <rc><c>O </c><c>   4</c></rc>
    <rc><c>O </c><c>   4</c></rc>
    <rc><c>O </c><c>   4</c></rc>
    <rc><c>O </c><c>   4</c></rc>
    <rc><c>O </c><c>   4</c></rc>
    <rc><c>O </c><c>   4</c></rc>
    <rc><c>O </c><c>   4</c></rc>
    <rc><c>O </c><c>   4</c></rc>
    <rc><c>O </c><c>   4</c></rc>
    <rc><c>O </c><c>   4</c></rc>
    <rc><c>O </c><c>   4</c></rc>
    <rc><c>O </c><c>   4</c></rc>
    <rc><c>O </c><c>   4</c></rc>
    <rc><c>O </c><c>   4</c></rc>
    <rc><c>O </c><c>   4</c></rc>
    <rc><c>O </c><c>   4</c></rc>
    <rc><c>O </c><c>   4</c></rc>
    <rc><c>O </c><c>   4</c></rc>
    <rc><c>O </c><c>   4</c></rc>
    <rc><c>O </c><c>   4</c></rc>
    <rc><c>O </c><c>   4</c></rc>
    <rc><c>O </c><c>   4</c></rc>
    <rc><c>O </c><c>   4</c></rc>
    <rc><c>Si</c><c>   5</c></rc>
    <rc><c>Si</c><c>   5</c></rc>
    <rc><c>Si</c><c>   5</c></rc>
    <rc><c>Si</c><c>   5</c></rc>
    <rc><c>Si</c><c>   5</c></rc>
    <rc><c>Si</c><c>   5</c></rc>
    <rc><c>Si</c><c>   5</c></rc>
    <rc><c>Si</c><c>   5</c></rc>
    <rc><c>Si</c><c>   5</c></rc>
    <rc><c>Si</c><c>   5</c></rc>
    <rc><c>Si</c><c>   5</c></rc>
    <rc><c>Si</c><c>   5</c></rc>
    <rc><c>Si</c><c>   5</c></rc>
    <rc><c>Si</c><c>   5</c></rc>
    <rc><c>Si</c><c>   5</c></rc>
    <rc><c>Si</c><c>   5</c></rc>
    <rc><c>Si</c><c>   5</c></rc>
    <rc><c>Si</c><c>   5</c></rc>
    <rc><c>Si</c><c>   5</c></rc>
    <rc><c>Si</c><c>   5</c></rc>
    <rc><c>Si</c><c>   5</c></rc>
    <rc><c>Si</c><c>   5</c></rc>
    <rc><c>Si</c><c>   5</c></rc>
    <rc><c>Si</c><c>   5</c></rc>
    <rc><c>Si</c><c>   5</c></rc>
    <rc><c>Si</c><c>   5</c></rc>
    <rc><c>Si</c><c>   5</c></rc>
    <rc><c>Si</c><c>   5</c></rc>
    <rc><c>Si</c><c>   5</c></rc>
    <rc><c>Si</c><c>   5</c></rc>
    <rc><c>Si</c><c>   5</c></rc>
    <rc><c>Si</c><c>   5</c></rc>
    <rc><c>Si</c><c>   5</c></rc>
    <rc><c>Si</c><c>   5</c></rc>
    <rc><c>Si</c><c>   5</c></rc>
   </set>
  </array>
  <array name="atomtypes" >
   <dimension dim="1">type</dimension>
   <field type="int">atomspertype</field>
   <field type="string">element</field>
   <field>mass</field>
   <field>valence</field>
   <field type="string">pseudopotential</field>
   <set>
    <rc><c>   1</c><c>Al</c><c>     26.98100000</c><c>      3.00000000</c><c>  PAW_PBE Al 04Jan2001                  </c></rc>
    <rc><c>   1</c><c>C </c><c>     12.01100000</c><c>      4.00000000</c><c>  PAW_PBE C 08Apr2002                   </c></rc>
    <rc><c>   3</c><c>H </c><c>      1.00000000</c><c>      1.00000000</c><c>  PAW_PBE H 15Jun2001                   </c></rc>
    <rc><c>  72</c><c>O </c><c>     16.00000000</c><c>      6.00000000</c><c>  PAW_PBE O 08Apr2002                   </c></rc>
    <rc><c>  35</c><c>Si</c><c>     28.08500000</c><c>      4.00000000</c><c>  PAW_PBE Si 05Jan2001                  </c></rc>
   </set>
  </array>
 </atominfo>
 <structure name="initialpos" >
  <crystal>
   <varray name="basis" >
    <v>      13.72957181      -0.00462456      -0.00141144 </v>
    <v>      -6.86873914      11.89091482       0.00181973 </v>
    <v>      -0.00151065       0.00130727      14.89037843 </v>
   </varray>
   <i name="volume">   2430.48799023 </i>
   <varray name="rec_basis" >
    <v>       0.07284966       0.04208131       0.00000370 </v>
    <v>       0.00002833       0.08411419      -0.00000738 </v>
    <v>       0.00000690      -0.00000629       0.06715746 </v>
   </varray>
  </crystal>
  <varray name="positions" >
   <v>       0.56226675       0.66695774       0.56210364 </v>
   <v>       0.39015985       0.62448741       0.48271087 </v>
   <v>       0.43554076       0.71519699       0.48270409 </v>
   <v>       0.43550588       0.57915908       0.48272071 </v>
   <v>       0.29943292       0.57910616       0.48270782 </v>
   <v>       0.01866908       0.33415778       0.83400028 </v>
   <v>       0.21409633       0.42707628       0.53524471 </v>
   <v>       0.54684068       0.09367858       0.20255533 </v>
   <v>       0.88033373       0.76060205       0.86690236 </v>
   <v>       0.45307532       0.54735605       0.79899071 </v>
   <v>       0.12054702       0.87953215       0.13137146 </v>
   <v>       0.09356834       0.54704988       0.79753904 </v>
   <v>       0.42908437       0.21450775       0.46642178 </v>
   <v>       0.76014491       0.88009731       0.13310068 </v>
   <v>       0.21378515       0.78703006       0.53379068 </v>
   <v>       0.90028721       0.09915112       0.12387986 </v>
   <v>       0.23937203       0.11999702       0.86781467 </v>
   <v>       0.86357454       0.43151607       0.45676915 </v>
   <v>       0.43242939       0.86426723       0.54370028 </v>
   <v>       0.98229452       0.31530457       0.16694177 </v>
   <v>       0.64817130       0.99953414       0.49955176 </v>
   <v>       0.00043896       0.64720847       0.49975529 </v>
   <v>       0.33298125       0.31452668       0.16704582 </v>
   <v>       0.98098642       0.66644197       0.16658376 </v>
   <v>       0.35239198       0.35174152       0.50050091 </v>
   <v>       0.68385168       0.01788778       0.16566335 </v>
   <v>       0.66669377       0.98186541       0.83352303 </v>
   <v>       0.00116992       0.35335410       0.49925248 </v>
   <v>       0.78762049       0.21296121       0.46562061 </v>
   <v>       0.33373752       0.01849548       0.16668310 </v>
   <v>       0.90604538       0.45293233       0.20052744 </v>
   <v>       0.31495955       0.33394208       0.83414386 </v>
   <v>       0.45343721       0.90696615       0.79859222 </v>
   <v>       0.07328832       0.66873069       0.66657635 </v>
   <v>       0.66878397       0.07248771       0.33291341 </v>
   <v>       0.99839898       0.73872197       0.99995682 </v>
   <v>       0.59484588       0.92882677       0.66664679 </v>
   <v>       0.92775304       0.59328347       0.33317011 </v>
   <v>       0.26044392       0.26022676       0.00041043 </v>
   <v>       0.40496547       0.33173231       0.33375974 </v>
   <v>       0.78717796       0.57370545       0.46504080 </v>
   <v>       0.73962094       0.99881333       0.99981828 </v>
   <v>       0.57346146       0.78656886       0.53553586 </v>
   <v>       0.59502641       0.66649762       0.66714202 </v>
   <v>       0.26173374       0.00093142       0.99988745 </v>
   <v>       0.07171686       0.40445488       0.66663892 </v>
   <v>       0.40502615       0.07341303       0.33357486 </v>
   <v>       0.33388493       0.40556150       0.66715660 </v>
   <v>       0.74130148       0.74157771       0.99990420 </v>
   <v>       0.54626077       0.45356368       0.20249386 </v>
   <v>       0.88005958       0.12063688       0.86801315 </v>
   <v>       0.33290645       0.92704622       0.66660571 </v>
   <v>       0.56813333       0.43345568       0.45573462 </v>
   <v>       0.66787315       0.59620520       0.33318521 </v>
   <v>       0.92707692       0.33365692       0.33309150 </v>
   <v>       0.35337550       0.00075342       0.50030064 </v>
   <v>       0.31507762       0.98219159       0.83302738 </v>
   <v>       0.90175571       0.80301538       0.12424376 </v>
   <v>       0.23451294       0.76604255       0.79065746 </v>
   <v>       0.11938162       0.23874371       0.13244245 </v>
   <v>       0.56886513       0.13557705       0.45505081 </v>
   <v>       0.23426633       0.46883248       0.78952332 </v>
   <v>       0.19789636       0.09842721       0.12373094 </v>
   <v>       0.00001922       0.26079870       0.00040007 </v>
   <v>       0.09929620       0.90094046       0.87711490 </v>
   <v>       0.80289743       0.90184265       0.87522089 </v>
   <v>       0.43312280       0.56754296       0.54387454 </v>
   <v>       0.53149813       0.76617893       0.78927568 </v>
   <v>       0.76513887       0.53069600       0.21050735 </v>
   <v>       0.13681379       0.56845723       0.54503361 </v>
   <v>       0.46898042       0.23467224       0.20963910 </v>
   <v>       0.64913284       0.64895484       0.50026552 </v>
   <v>       0.76597739       0.23394914       0.20912494 </v>
   <v>       0.66631742       0.68549264       0.83419044 </v>
   <v>       0.01850874       0.68504333       0.83354036 </v>
   <v>       0.09893653       0.19841567       0.87681325 </v>
   <v>       0.68535530       0.66617265       0.16567902 </v>
   <v>       0.56160226       0.89548670       0.77161425 </v>
   <v>       0.99963954       0.77178059       0.89479173 </v>
   <v>       0.89488496       0.33352588       0.22786143 </v>
   <v>       0.77144754       0.99942864       0.10518678 </v>
   <v>       0.10592703       0.43874517       0.56189606 </v>
   <v>       0.33357859       0.43886748       0.77206256 </v>
   <v>       0.00004570       0.77197853       0.10511512 </v>
   <v>       0.33358113       0.89516793       0.77182313 </v>
   <v>       0.22843925       0.99974974       0.10499738 </v>
   <v>       0.22769218       0.22754836       0.10550695 </v>
   <v>       0.10497779       0.43863490       0.77151563 </v>
   <v>       0.66790209       0.10513258       0.43790817 </v>
   <v>       0.00006699       0.22803651       0.10547304 </v>
   <v>       0.89486199       0.33327201       0.43832718 </v>
   <v>       0.33354587       0.89477868       0.56149855 </v>
   <v>       0.89471565       0.56103274       0.43828992 </v>
   <v>       0.10537040       0.66709381       0.77164668 </v>
   <v>       0.33375432       0.43838063       0.56208668 </v>
   <v>       0.89452606       0.56088599       0.22808763 </v>
   <v>       0.77256536       0.77270690       0.10534218 </v>
   <v>       0.66765425       0.56266940       0.43814029 </v>
   <v>       0.43903444       0.33331600       0.43871159 </v>
   <v>       0.10601279       0.66735158       0.56164940 </v>
   <v>       0.22845574       0.00058940       0.89487405 </v>
   <v>       0.66657228       0.56165633       0.22836123 </v>
   <v>       0.56149853       0.66686609       0.77198996 </v>
   <v>       0.99987949       0.22851408       0.89520799 </v>
   <v>       0.77276445       0.77281234       0.89450369 </v>
   <v>       0.66676104       0.10493668       0.22800227 </v>
   <v>       0.22801816       0.22811264       0.89521057 </v>
   <v>       0.43835039       0.33325187       0.22863568 </v>
   <v>       0.77236684       0.00040877       0.89457899 </v>
   <v>       0.56181870       0.89478902       0.56175798 </v>
   <v>       0.43865925       0.10549905       0.22850692 </v>
   <v>       0.43951841       0.10602589       0.43844766 </v>
  </varray>
 </structure>
 <calculation>
  <scstep>
   <time name="dav">    2.42    2.48</time>
   <time name="total">    2.67    2.78</time>
   <energy>
    <i name="alphaZ">    476.21782353 </i>
    <i name="ewald">  -2112.04069353 </i>
    <i name="hartreedc"> -29018.40780312 </i>
    <i name="XCdc">   1692.58681020 </i>
    <i name="pawpsdc">  28217.01960844 </i>
    <i name="pawaedc"> -27699.40053531 </i>
    <i name="eentropy">     -0.15096126 </i>
    <i name="bandstr">  -2069.44455481 </i>
    <i name="atom">  34968.35250874 </i>
    <i name="e_fr_energy">   4454.73220288 </i>
    <i name="e_wo_entrp">   4454.88316414 </i>
    <i name="e_0_energy">   4454.80768351 </i>
   </energy>
  </scstep>
  <scstep>
   <time name="dav">    2.72    2.73</time>
   <time name="total">    2.73    2.74</time>
   <energy>
    <i name="e_fr_energy">   -408.60284007 </i>
    <i name="e_wo_entrp">   -408.60284007 </i>
    <i name="e_0_energy">   -408.60284007 </i>
   </energy>
  </scstep>
  <scstep>
   <time name="dav">    2.36    2.37</time>
   <time name="total">    2.37    2.38</time>
   <energy>
    <i name="e_fr_energy">   -968.25715408 </i>
    <i name="e_wo_entrp">   -968.25715408 </i>
    <i name="e_0_energy">   -968.25715408 </i>
   </energy>
  </scstep>
  <scstep>
   <time name="dav">    2.37    2.38</time>
   <time name="total">    2.38    2.38</time>
   <energy>
    <i name="e_fr_energy">   -981.39789696 </i>
    <i name="e_wo_entrp">   -981.39789696 </i>
    <i name="e_0_energy">   -981.39789696 </i>
   </energy>
  </scstep>
  <scstep>
   <time name="dav">    2.32    2.33</time>
   <time name="total">    2.38    2.39</time>
   <energy>
    <i name="e_fr_energy">   -981.80576129 </i>
    <i name="e_wo_entrp">   -981.80576129 </i>
    <i name="e_0_energy">   -981.80576129 </i>
   </energy>
  </scstep>
  <scstep>
   <time name="dav">    2.24    2.25</time>
   <time name="total">    2.39    2.40</time>
   <energy>
    <i name="e_fr_energy">   -864.43733133 </i>
    <i name="e_wo_entrp">   -864.43733133 </i>
    <i name="e_0_energy">   -864.43733133 </i>
   </energy>
  </scstep>
  <scstep>
   <time name="dav">    2.41    2.42</time>
   <time name="total">    2.53    2.54</time>
   <energy>
    <i name="e_fr_energy">   -863.76455315 </i>
    <i name="e_wo_entrp">   -863.76455315 </i>
    <i name="e_0_energy">   -863.76455315 </i>
   </energy>
  </scstep>
  <scstep>
   <time name="dav">    2.24    2.25</time>
   <time name="total">    2.36    2.37</time>
   <energy>
    <i name="e_fr_energy">   -863.26517080 </i>
    <i name="e_wo_entrp">   -863.26517080 </i>
    <i name="e_0_energy">   -863.26517080 </i>
   </energy>
  </scstep>
  <scstep>
   <time name="dav">    2.25    2.26</time>
   <time name="total">    2.37    2.38</time>
   <energy>
    <i name="e_fr_energy">   -863.12011772 </i>
    <i name="e_wo_entrp">   -863.12011772 </i>
    <i name="e_0_energy">   -863.12011772 </i>
   </energy>
  </scstep>
  <scstep>
   <time name="dav">    2.19    2.19</time>
   <time name="total">    2.33    2.33</time>
   <energy>
    <i name="e_fr_energy">   -863.12315666 </i>
    <i name="e_wo_entrp">   -863.12315666 </i>
    <i name="e_0_energy">   -863.12315666 </i>
   </energy>
  </scstep>
  <scstep>
   <time name="dav">    2.16    2.17</time>
   <time name="total">    2.27    2.28</time>
   <energy>
    <i name="e_fr_energy">   -863.12368609 </i>
    <i name="e_wo_entrp">   -863.12368609 </i>
    <i name="e_0_energy">   -863.12368609 </i>
   </energy>
  </scstep>
  <scstep>
   <time name="dav">    2.11    2.12</time>
   <time name="total">    2.22    2.23</time>
   <energy>
    <i name="e_fr_energy">   -863.12999063 </i>
    <i name="e_wo_entrp">   -863.12999063 </i>
    <i name="e_0_energy">   -863.12999063 </i>
   </energy>
  </scstep>
  <scstep>
   <time name="dav">    2.36    2.37</time>
   <time name="total">    2.48    2.49</time>
   <energy>
    <i name="e_fr_energy">   -863.14059386 </i>
    <i name="e_wo_entrp">   -863.14059386 </i>
    <i name="e_0_energy">   -863.14059386 </i>
   </energy>
  </scstep>
  <scstep>
   <time name="dav">    2.17    2.17</time>
   <time name="total">    2.28    2.29</time>
   <energy>
    <i name="e_fr_energy">   -863.14833162 </i>
    <i name="e_wo_entrp">   -863.14833162 </i>
    <i name="e_0_energy">   -863.14833162 </i>
   </energy>
  </scstep>
  <scstep>
   <time name="dav">    2.23    2.24</time>
   <time name="total">    2.35    2.36</time>
   <energy>
    <i name="e_fr_energy">   -863.15096714 </i>
    <i name="e_wo_entrp">   -863.15096714 </i>
    <i name="e_0_energy">   -863.15096714 </i>
   </energy>
  </scstep>
  <scstep>
   <time name="dav">    2.15    2.15</time>
   <time name="total">    2.26    2.27</time>
   <energy>
    <i name="e_fr_energy">   -863.15221749 </i>
    <i name="e_wo_entrp">   -863.15221749 </i>
    <i name="e_0_energy">   -863.15221749 </i>
   </energy>
  </scstep>
  <scstep>
   <time name="dav">    2.16    2.17</time>
   <time name="total">    2.27    2.28</time>
   <energy>
    <i name="e_fr_energy">   -863.15250010 </i>
    <i name="e_wo_entrp">   -863.15250010 </i>
    <i name="e_0_energy">   -863.15250010 </i>
   </energy>
  </scstep>
  <scstep>
   <time name="dav">    2.11    2.12</time>
   <time name="total">    2.22    2.23</time>
   <energy>
    <i name="e_fr_energy">   -863.15285859 </i>
    <i name="e_wo_entrp">   -863.15285859 </i>
    <i name="e_0_energy">   -863.15285859 </i>
   </energy>
  </scstep>
  <scstep>
   <time name="dav">    2.09    2.09</time>
   <time name="total">    2.20    2.21</time>
   <energy>
    <i name="e_fr_energy">   -863.15293947 </i>
    <i name="e_wo_entrp">   -863.15293947 </i>
    <i name="e_0_energy">   -863.15293947 </i>
   </energy>
  </scstep>
  <scstep>
   <time name="dav">    2.15    2.15</time>
   <time name="total">    2.26    2.27</time>
   <energy>
    <i name="e_fr_energy">   -863.15295731 </i>
    <i name="e_wo_entrp">   -863.15295731 </i>
    <i name="e_0_energy">   -863.15295731 </i>
   </energy>
  </scstep>
  <scstep>
   <time name="dav">    1.68    1.69</time>
   <time name="total">    1.80    1.80</time>
   <energy>
    <i name="e_fr_energy">   -863.15297023 </i>
    <i name="e_wo_entrp">   -863.15297023 </i>
    <i name="e_0_energy">   -863.15297023 </i>
   </energy>
  </scstep>
  <scstep>
   <time name="dav">    1.60    1.61</time>
   <time name="total">    1.72    1.72</time>
   <energy>
    <i name="e_fr_energy">   -863.15297235 </i>
    <i name="e_wo_entrp">   -863.15297235 </i>
    <i name="e_0_energy">   -863.15297235 </i>
   </energy>
  </scstep>
  <scstep>
   <time name="dav">    1.58    1.59</time>
   <time name="total">    1.64    1.64</time>
   <energy>
    <i name="alphaZ">    476.21782353 </i>
    <i name="ewald">  -2112.04069353 </i>
    <i name="hartreedc"> -30897.70188536 </i>
    <i name="XCdc">   1804.18545038 </i>
    <i name="pawpsdc">  91672.64599445 </i>
    <i name="pawaedc"> -91180.39719449 </i>
    <i name="eentropy">     -0.00000000 </i>
    <i name="bandstr">  -5594.41497666 </i>
    <i name="atom">  34968.35250874 </i>
    <i name="e_fr_energy">   -863.15297294 </i>
    <i name="e_wo_entrp">   -863.15297294 </i>
    <i name="e_0_energy">   -863.15297294 </i>
   </energy>
  </scstep>
  <structure>
   <crystal>
    <varray name="basis" >
     <v>      13.72957181      -0.00462456      -0.00141144 </v>
     <v>      -6.86873914      11.89091482       0.00181973 </v>
     <v>      -0.00151065       0.00130727      14.89037843 </v>
    </varray>
    <i name="volume">   2430.48799023 </i>
    <varray name="rec_basis" >
     <v>       0.07284966       0.04208131       0.00000370 </v>
     <v>       0.00002833       0.08411419      -0.00000738 </v>
     <v>       0.00000690      -0.00000629       0.06715746 </v>
    </varray>
   </crystal>
   <varray name="positions" >
    <v>       0.56226675       0.66695774       0.56210364 </v>
    <v>       0.39015985       0.62448741       0.48271087 </v>
    <v>       0.43554076       0.71519699       0.48270409 </v>
    <v>       0.43550588       0.57915908       0.48272071 </v>
    <v>       0.29943292       0.57910616       0.48270782 </v>
    <v>       0.01866908       0.33415778       0.83400028 </v>
    <v>       0.21409633       0.42707628       0.53524471 </v>
    <v>       0.54684068       0.09367858       0.20255533 </v>
    <v>       0.88033373       0.76060205       0.86690236 </v>
    <v>       0.45307532       0.54735605       0.79899071 </v>
    <v>       0.12054702       0.87953215       0.13137146 </v>
    <v>       0.09356834       0.54704988       0.79753904 </v>
    <v>       0.42908437       0.21450775       0.46642178 </v>
    <v>       0.76014491       0.88009731       0.13310068 </v>
    <v>       0.21378515       0.78703006       0.53379068 </v>
    <v>       0.90028721       0.09915112       0.12387986 </v>
    <v>       0.23937203       0.11999702       0.86781467 </v>
    <v>       0.86357454       0.43151607       0.45676915 </v>
    <v>       0.43242939       0.86426723       0.54370028 </v>
    <v>       0.98229452       0.31530457       0.16694177 </v>
    <v>       0.64817130       0.99953414       0.49955176 </v>
    <v>       0.00043896       0.64720847       0.49975529 </v>
    <v>       0.33298125       0.31452668       0.16704582 </v>
    <v>       0.98098642       0.66644197       0.16658376 </v>
    <v>       0.35239198       0.35174152       0.50050091 </v>
    <v>       0.68385168       0.01788778       0.16566335 </v>
    <v>       0.66669377       0.98186541       0.83352303 </v>
    <v>       0.00116992       0.35335410       0.49925248 </v>
    <v>       0.78762049       0.21296121       0.46562061 </v>
    <v>       0.33373752       0.01849548       0.16668310 </v>
    <v>       0.90604538       0.45293233       0.20052744 </v>
    <v>       0.31495955       0.33394208       0.83414386 </v>
    <v>       0.45343721       0.90696615       0.79859222 </v>
    <v>       0.07328832       0.66873069       0.66657635 </v>
    <v>       0.66878397       0.07248771       0.33291341 </v>
    <v>       0.99839898       0.73872197       0.99995682 </v>
    <v>       0.59484588       0.92882677       0.66664679 </v>
    <v>       0.92775304       0.59328347       0.33317011 </v>
    <v>       0.26044392       0.26022676       0.00041043 </v>
    <v>       0.40496547       0.33173231       0.33375974 </v>
    <v>       0.78717796       0.57370545       0.46504080 </v>
    <v>       0.73962094       0.99881333       0.99981828 </v>
    <v>       0.57346146       0.78656886       0.53553586 </v>
    <v>       0.59502641       0.66649762       0.66714202 </v>
    <v>       0.26173374       0.00093142       0.99988745 </v>
    <v>       0.07171686       0.40445488       0.66663892 </v>
    <v>       0.40502615       0.07341303       0.33357486 </v>
    <v>       0.33388493       0.40556150       0.66715660 </v>
    <v>       0.74130148       0.74157771       0.99990420 </v>
    <v>       0.54626077       0.45356368       0.20249386 </v>
    <v>       0.88005958       0.12063688       0.86801315 </v>
    <v>       0.33290645       0.92704622       0.66660571 </v>
    <v>       0.56813333       0.43345568       0.45573462 </v>
    <v>       0.66787315       0.59620520       0.33318521 </v>
    <v>       0.92707692       0.33365692       0.33309150 </v>
    <v>       0.35337550       0.00075342       0.50030064 </v>
    <v>       0.31507762       0.98219159       0.83302738 </v>
    <v>       0.90175571       0.80301538       0.12424376 </v>
    <v>       0.23451294       0.76604255       0.79065746 </v>
    <v>       0.11938162       0.23874371       0.13244245 </v>
    <v>       0.56886513       0.13557705       0.45505081 </v>
    <v>       0.23426633       0.46883248       0.78952332 </v>
    <v>       0.19789636       0.09842721       0.12373094 </v>
    <v>       0.00001922       0.26079870       0.00040007 </v>
    <v>       0.09929620       0.90094046       0.87711490 </v>
    <v>       0.80289743       0.90184265       0.87522089 </v>
    <v>       0.43312280       0.56754296       0.54387454 </v>
    <v>       0.53149813       0.76617893       0.78927568 </v>
    <v>       0.76513887       0.53069600       0.21050735 </v>
    <v>       0.13681379       0.56845723       0.54503361 </v>
    <v>       0.46898042       0.23467224       0.20963910 </v>
    <v>       0.64913284       0.64895484       0.50026552 </v>
    <v>       0.76597739       0.23394914       0.20912494 </v>
    <v>       0.66631742       0.68549264       0.83419044 </v>
    <v>       0.01850874       0.68504333       0.83354036 </v>
    <v>       0.09893653       0.19841567       0.87681325 </v>
    <v>       0.68535530       0.66617265       0.16567902 </v>
    <v>       0.56160226       0.89548670       0.77161425 </v>
    <v>       0.99963954       0.77178059       0.89479173 </v>
    <v>       0.89488496       0.33352588       0.22786143 </v>
    <v>       0.77144754       0.99942864       0.10518678 </v>
    <v>       0.10592703       0.43874517       0.56189606 </v>
    <v>       0.33357859       0.43886748       0.77206256 </v>
    <v>       0.00004570       0.77197853       0.10511512 </v>
    <v>       0.33358113       0.89516793       0.77182313 </v>
    <v>       0.22843925       0.99974974       0.10499738 </v>
    <v>       0.22769218       0.22754836       0.10550695 </v>
    <v>       0.10497779       0.43863490       0.77151563 </v>
    <v>       0.66790209       0.10513258       0.43790817 </v>
    <v>       0.00006699       0.22803651       0.10547304 </v>
    <v>       0.89486199       0.33327201       0.43832718 </v>
    <v>       0.33354587       0.89477868       0.56149855 </v>
    <v>       0.89471565       0.56103274       0.43828992 </v>
    <v>       0.10537040       0.66709381       0.77164668 </v>
    <v>       0.33375432       0.43838063       0.56208668 </v>
    <v>       0.89452606       0.56088599       0.22808763 </v>
    <v>       0.77256536       0.77270690       0.10534218 </v>
    <v>       0.66765425       0.56266940       0.43814029 </v>
    <v>       0.43903444       0.33331600       0.43871159 </v>
    <v>       0.10601279       0.66735158       0.56164940 </v>
    <v>       0.22845574       0.00058940       0.89487405 </v>
    <v>       0.66657228       0.56165633       0.22836123 </v>
    <v>       0.56149853       0.66686609       0.77198996 </v>
    <v>       0.99987949       0.22851408       0.89520799 </v>
    <v>       0.77276445       0.77281234       0.89450369 </v>
    <v>       0.66676104       0.10493668       0.22800227 </v>
    <v>       0.22801816       0.22811264       0.89521057 </v>
    <v>       0.43835039       0.33325187       0.22863568 </v>
    <v>       0.77236684       0.00040877       0.89457899 </v>
    <v>       0.56181870       0.89478902       0.56175798 </v>
    <v>       0.43865925       0.10549905       0.22850692 </v>
    <v>       0.43951841       0.10602589       0.43844766 </v>
   </varray>
  </structure>
  <varray name="forces" >
   <v>       4.57750146       3.99204522       2.11127739 </v>
   <v>      -6.89954940       3.10841997      -4.85085506 </v>
   <v>      -0.04837746      -0.50679980       0.67613267 </v>
   <v>       2.41052004      -0.33392528     -14.83655387 </v>
   <v>       0.18937482       0.23291317       0.14233991 </v>
   <v>       0.02593806       0.09217581      -0.09673483 </v>
   <v>       0.72194491      -0.25852032       0.24227761 </v>
   <v>      -0.04334482       0.00228438      -0.00402553 </v>
   <v>       0.14044483       0.01320077       0.02701952 </v>
   <v>      -0.40480623      -0.60632350       0.09303029 </v>
   <v>       0.02882592       0.03350529       0.00962589 </v>
   <v>       0.06747554      -0.09528158      -0.04886602 </v>
   <v>      -0.23373986       0.14666563       0.07096410 </v>
   <v>      -0.01082737       0.04336611       0.00928315 </v>
   <v>       0.00475012      -0.12147226      -0.02972671 </v>
   <v>       0.03858979       0.05597212      -0.00092873 </v>
   <v>      -0.01651917       0.06418000      -0.02126019 </v>
   <v>       0.15157284      -0.08880098       0.03108077 </v>
   <v>      -0.45107792       0.06747149      -0.05873008 </v>
   <v>       0.01890324       0.01868953       0.00783187 </v>
   <v>      -0.14116404       0.42995326      -0.18443739 </v>
   <v>       0.20900314       0.01671120       0.08260309 </v>
   <v>      -0.00982720      -0.00608097       0.02346027 </v>
   <v>       0.02886980       0.00048581      -0.00239583 </v>
   <v>      -0.58488397       0.95087383       0.49246690 </v>
   <v>      -0.01994427       0.02025932       0.01392560 </v>
   <v>       0.03734121       0.08834624       0.08555548 </v>
   <v>       0.34756770       0.13815238       0.15180522 </v>
   <v>       0.08469405       0.15014697       0.00141344 </v>
   <v>       0.00510816       0.00855961       0.01332941 </v>
   <v>       0.04419573      -0.03481921       0.00467979 </v>
   <v>      -0.02704200       0.04545692      -0.20362234 </v>
   <v>      -0.19241468       0.01595114       0.02826583 </v>
   <v>       0.07035658      -0.07067556      -0.10338468 </v>
   <v>      -0.02614926       0.03694601      -0.04380241 </v>
   <v>       0.03841213      -0.00358878       0.00737021 </v>
   <v>      -0.18512606       0.17969077       0.22797292 </v>
   <v>       0.08023547      -0.00048401      -0.01608456 </v>
   <v>       0.00322325       0.02137316      -0.04319762 </v>
   <v>      -0.12731673      -0.02102560       0.26284309 </v>
   <v>       0.48190146      -0.17662860      -0.08811493 </v>
   <v>      -0.00558755       0.03721646       0.04844162 </v>
   <v>      -1.65322014       4.23985362      -0.14863860 </v>
   <v>       0.06698217      -0.57659895       3.92598404 </v>
   <v>       0.00358569       0.01965709       0.00158112 </v>
   <v>       0.14496745       0.02649216      -0.27834323 </v>
   <v>      -0.02990352       0.00986496       0.05025786 </v>
   <v>       0.08108931       0.38052072      -1.11892740 </v>
   <v>       0.02370461       0.00985086       0.10210220 </v>
   <v>      -0.07400783      -0.14031226      -0.01420988 </v>
   <v>       0.05847757       0.12318668      -0.00168752 </v>
   <v>      -0.04165946      -0.00532631      -0.06701442 </v>
   <v>      -0.37355184      -0.63193847       0.02507262 </v>
   <v>       0.07605191      -0.18038306      -0.40311662 </v>
   <v>       0.06569335       0.01971444       0.07585169 </v>
   <v>      -0.05542742       0.02231768      -0.01581720 </v>
   <v>      -0.02818512       0.02215861       0.00481806 </v>
   <v>       0.05880188       0.01509661       0.00218704 </v>
   <v>      -0.02609040      -0.07352137      -0.02761993 </v>
   <v>       0.01903419       0.01831218       0.00725811 </v>
   <v>      -0.15135189       0.05740004      -0.01433193 </v>
   <v>       0.04716933      -0.04735778      -0.17498542 </v>
   <v>      -0.01139379       0.02606919      -0.00263881 </v>
   <v>       0.01782364       0.03465124      -0.02318068 </v>
   <v>       0.03277041       0.04394265       0.00136146 </v>
   <v>       0.01237943       0.10077390       0.05081037 </v>
   <v>      -1.05633529      -4.79798715      14.02062169 </v>
   <v>      -0.26179901       0.17163729       0.23188579 </v>
   <v>       0.08057915      -0.03209053      -0.04256097 </v>
   <v>       0.29048485      -0.26184790      -0.05727282 </v>
   <v>      -0.02420122       0.01143246       0.03520442 </v>
   <v>       2.64675860      -1.73643893      -2.64070976 </v>
   <v>       0.01032065       0.03722177       0.00922646 </v>
   <v>       0.17675640       0.09635336       0.42202294 </v>
   <v>       0.07320835      -0.04498522      -0.04777904 </v>
   <v>       0.03770582       0.03438899      -0.02651012 </v>
   <v>       0.00537762       0.00236148      -0.03267673 </v>
   <v>       0.21859914      -0.19543432      -0.21344073 </v>
   <v>      -0.15126614      -0.00423889       0.00294108 </v>
   <v>      -0.05280850       0.00153053      -0.05946644 </v>
   <v>      -0.01324516      -0.07965579      -0.03495699 </v>
   <v>      -1.07651738      -0.26047254       0.32540800 </v>
   <v>       0.22535363       0.48413884       0.99197513 </v>
   <v>      -0.06799702      -0.02432939      -0.00523439 </v>
   <v>       0.16465296       0.04771478       0.05093049 </v>
   <v>      -0.00401226      -0.04713765      -0.01012454 </v>
   <v>      -0.00211581      -0.01661301       0.01336926 </v>
   <v>      -0.14297732       0.00682789       0.28993379 </v>
   <v>       0.09272532      -0.26336926       0.14404332 </v>
   <v>      -0.03993582      -0.05016784       0.01375305 </v>
   <v>      -0.32314305      -0.09059056      -0.14276495 </v>
   <v>       0.11470467       0.10497373       0.08736284 </v>
   <v>      -0.40674404       0.03122330      -0.02382618 </v>
   <v>      -0.08030947       0.12060676       0.10643361 </v>
   <v>      -1.13933813      -5.11627631       1.77514844 </v>
   <v>      -0.09039512       0.03125644       0.01526707 </v>
   <v>      -0.03867720      -0.04880822      -0.04690720 </v>
   <v>      -0.40761677       1.36453157       0.69362661 </v>
   <v>       1.05332521      -0.09382642      -0.64242621 </v>
   <v>      -0.39638228       0.28850554       0.04932918 </v>
   <v>       0.00902932      -0.07525101       0.00924662 </v>
   <v>      -0.01636764       0.15204545       0.21687802 </v>
   <v>       0.70526515       0.30849770      -1.33772341 </v>
   <v>      -0.07678031      -0.14910609       0.06394474 </v>
   <v>      -0.20506657      -0.16155049      -0.19262610 </v>
   <v>       0.04209017      -0.05323914       0.03356145 </v>
   <v>      -0.01849009      -0.12687446       0.10644924 </v>
   <v>       0.08745078       0.11171990      -0.18940842 </v>
   <v>      -0.05601707      -0.17124983      -0.08660373 </v>
   <v>       1.24427022      -0.56934939       0.02542262 </v>
   <v>       0.04613397      -0.02616679      -0.04977338 </v>
   <v>       0.18095492      -0.11092122      -0.04024185 </v>
  </varray>
  <varray name="stress" >
   <v>     -14.63257290       2.09073774       2.90328783 </v>
   <v>       2.09073769     -13.52443342      -2.14283864 </v>
   <v>       2.90328781      -2.14283870     -11.09197550 </v>
  </varray>
  <energy>
   <i name="e_fr_energy">   -863.15297294 </i>
   <i name="e_wo_entrp">   -863.15297294 </i>
   <i name="e_0_energy">     -0.00000000 </i>
  </energy>
  <time name="totalsc">   54.21   54.56</time>
 </calculation>
 <calculation>
  <scstep>
   <time name="dav">    2.13    2.13</time>
   <time name="total">    2.24    2.26</time>
   <energy>
    <i name="alphaZ">    476.21782353 </i>
    <i name="ewald">  -2226.39756441 </i>
    <i name="hartreedc"> -30760.04302903 </i>
    <i name="XCdc">   1801.52987312 </i>
    <i name="pawpsdc">  91672.70796703 </i>
    <i name="pawaedc"> -91180.45948840 </i>
    <i name="eentropy">     -0.00000000 </i>
    <i name="bandstr">  -5588.16948033 </i>
    <i name="atom">  34968.35250874 </i>
    <i name="e_fr_energy">   -836.26138975 </i>
    <i name="e_wo_entrp">   -836.26138975 </i>
    <i name="e_0_energy">   -836.26138975 </i>
   </energy>
  </scstep>
  <scstep>
   <time name="dav">    2.26    2.27</time>
   <time name="total">    2.37    2.38</time>
   <energy>
    <i name="e_fr_energy">   -868.18934237 </i>
    <i name="e_wo_entrp">   -868.18934237 </i>
    <i name="e_0_energy">   -868.18934237 </i>
   </energy>
  </scstep>
  <scstep>
   <time name="dav">    2.20    2.20</time>
   <time name="total">    2.31    2.31</time>
   <energy>
    <i name="e_fr_energy">   -860.23216076 </i>
    <i name="e_wo_entrp">   -860.23216076 </i>
    <i name="e_0_energy">   -860.23216076 </i>
   </energy>
  </scstep>
  <scstep>
   <time name="dav">    2.13    2.14</time>
   <time name="total">    2.25    2.26</time>
   <energy>
    <i name="e_fr_energy">   -860.45002380 </i>
    <i name="e_wo_entrp">   -860.45002380 </i>
    <i name="e_0_energy">   -860.45002380 </i>
   </energy>
  </scstep>
  <scstep>
   <time name="dav">    2.16    2.17</time>
   <time name="total">    2.28    2.29</time>
   <energy>
    <i name="e_fr_energy">   -858.74686082 </i>
    <i name="e_wo_entrp">   -858.74686082 </i>
    <i name="e_0_energy">   -858.74686082 </i>
   </energy>
  </scstep>
  <scstep>
   <time name="dav">    2.12    2.12</time>
   <time name="total">    2.23    2.24</time>
   <energy>
    <i name="e_fr_energy">   -858.74827032 </i>
    <i name="e_wo_entrp">   -858.74827032 </i>
    <i name="e_0_energy">   -858.74827032 </i>
   </energy>
  </scstep>
  <scstep>
   <time name="dav">    2.50    2.51</time>
   <time name="total">    2.61    2.62</time>
   <energy>
    <i name="e_fr_energy">   -858.72271167 </i>
    <i name="e_wo_entrp">   -858.72271167 </i>
    <i name="e_0_energy">   -858.72271167 </i>
   </energy>
  </scstep>
  <scstep>
   <time name="dav">    2.18    2.19</time>
   <time name="total">    2.30    2.31</time>
   <energy>
    <i name="e_fr_energy">   -858.64038937 </i>
    <i name="e_wo_entrp">   -858.64038937 </i>
    <i name="e_0_energy">   -858.64038937 </i>
   </energy>
  </scstep>
  <scstep>
   <time name="dav">    2.16    2.17</time>
   <time name="total">    2.27    2.28</time>
   <energy>
    <i name="e_fr_energy">   -858.64014332 </i>
    <i name="e_wo_entrp">   -858.64014332 </i>
    <i name="e_0_energy">   -858.64014332 </i>
   </energy>
  </scstep>
  <scstep>
   <time name="dav">    2.22    2.22</time>
   <time name="total">    2.35    2.36</time>
   <energy>
    <i name="e_fr_energy">   -858.63795784 </i>
    <i name="e_wo_entrp">   -858.63795784 </i>
    <i name="e_0_energy">   -858.63795784 </i>
   </energy>
  </scstep>
  <scstep>
   <time name="dav">    2.17    2.17</time>
   <time name="total">    2.28    2.29</time>
   <energy>
    <i name="e_fr_energy">   -858.63362497 </i>
    <i name="e_wo_entrp">   -858.63362497 </i>
    <i name="e_0_energy">   -858.63362497 </i>
   </energy>
  </scstep>
  <scstep>
   <time name="dav">    2.25    2.26</time>
   <time name="total">    2.37    2.38</time>
   <energy>
    <i name="e_fr_energy">   -858.63363903 </i>
    <i name="e_wo_entrp">   -858.63363903 </i>
    <i name="e_0_energy">   -858.63363903 </i>
   </energy>
  </scstep>
  <scstep>
   <time name="dav">    2.16    2.16</time>
   <time name="total">    2.27    2.28</time>
   <energy>
    <i name="e_fr_energy">   -858.63402265 </i>
    <i name="e_wo_entrp">   -858.63402265 </i>
    <i name="e_0_energy">   -858.63402265 </i>
   </energy>
  </scstep>
  <scstep>
   <time name="dav">    2.15    2.15</time>
   <time name="total">    2.26    2.27</time>
   <energy>
    <i name="e_fr_energy">   -858.63423884 </i>
    <i name="e_wo_entrp">   -858.63423884 </i>
    <i name="e_0_energy">   -858.63423884 </i>
   </energy>
  </scstep>
  <scstep>
   <time name="dav">    2.24    2.24</time>
   <time name="total">    2.35    2.36</time>
   <energy>
    <i name="e_fr_energy">   -858.63467313 </i>
    <i name="e_wo_entrp">   -858.63467313 </i>
    <i name="e_0_energy">   -858.63467313 </i>
   </energy>
  </scstep>
  <scstep>
   <time name="dav">    2.39    2.39</time>
   <time name="total">    2.50    2.51</time>
   <energy>
    <i name="e_fr_energy">   -858.63503289 </i>
    <i name="e_wo_entrp">   -858.63503289 </i>
    <i name="e_0_energy">   -858.63503289 </i>
   </energy>
  </scstep>
  <scstep>
   <time name="dav">    2.17    2.18</time>
   <time name="total">    2.29    2.30</time>
   <energy>
    <i name="e_fr_energy">   -858.63507372 </i>
    <i name="e_wo_entrp">   -858.63507372 </i>
    <i name="e_0_energy">   -858.63507372 </i>
   </energy>
  </scstep>
  <scstep>
   <time name="dav">    2.13    2.14</time>
   <time name="total">    2.25    2.26</time>
   <energy>
    <i name="e_fr_energy">   -858.63512406 </i>
    <i name="e_wo_entrp">   -858.63512406 </i>
    <i name="e_0_energy">   -858.63512406 </i>
   </energy>
  </scstep>
  <scstep>
   <time name="dav">    2.08    2.09</time>
   <time name="total">    2.20    2.21</time>
   <energy>
    <i name="e_fr_energy">   -858.63523069 </i>
    <i name="e_wo_entrp">   -858.63523069 </i>
    <i name="e_0_energy">   -858.63523069 </i>
   </energy>
  </scstep>
  <scstep>
   <time name="dav">    2.14    2.15</time>
   <time name="total">    2.26    2.27</time>
   <energy>
    <i name="e_fr_energy">   -858.63524288 </i>
    <i name="e_wo_entrp">   -858.63524288 </i>
    <i name="e_0_energy">   -858.63524288 </i>
   </energy>
  </scstep>
  <scstep>
   <time name="dav">    2.11    2.12</time>
   <time name="total">    2.27    2.29</time>
   <energy>
    <i name="e_fr_energy">   -858.63525381 </i>
    <i name="e_wo_entrp">   -858.63525381 </i>
    <i name="e_0_energy">   -858.63525381 </i>
   </energy>
  </scstep>
  <scstep>
   <time name="dav">    1.69    1.70</time>
   <time name="total">    1.81    1.82</time>
   <energy>
    <i name="e_fr_energy">   -858.63526436 </i>
    <i name="e_wo_entrp">   -858.63526436 </i>
    <i name="e_0_energy">   -858.63526436 </i>
   </energy>
  </scstep>
  <scstep>
   <time name="dav">    1.64    1.65</time>
   <time name="total">    1.79    1.80</time>
   <energy>
    <i name="e_fr_energy">   -858.63526796 </i>
    <i name="e_wo_entrp">   -858.63526796 </i>
    <i name="e_0_energy">   -858.63526796 </i>
   </energy>
  </scstep>
  <scstep>
   <time name="dav">    1.63    1.63</time>
   <time name="total">    1.74    1.75</time>
   <energy>
    <i name="e_fr_energy">   -858.63526912 </i>
    <i name="e_wo_entrp">   -858.63526912 </i>
    <i name="e_0_energy">   -858.63526912 </i>
   </energy>
  </scstep>
  <scstep>
   <time name="dav">    1.55    1.55</time>
   <time name="total">    1.73    1.74</time>
   <energy>
    <i name="e_fr_energy">   -858.63527035 </i>
    <i name="e_wo_entrp">   -858.63527035 </i>
    <i name="e_0_energy">   -858.63527035 </i>
   </energy>
  </scstep>
  <scstep>
   <time name="dav">    1.55    1.55</time>
   <time name="total">    1.60    1.61</time>
   <energy>
    <i name="alphaZ">    476.21782353 </i>
    <i name="ewald">  -2226.39756441 </i>
    <i name="hartreedc"> -30832.17901795 </i>
    <i name="XCdc">   1803.62686195 </i>
    <i name="pawpsdc">  95225.03915111 </i>
    <i name="pawaedc"> -94733.33015671 </i>
    <i name="eentropy">     -0.00000000 </i>
    <i name="bandstr">  -5539.96487748 </i>
    <i name="atom">  34968.35250874 </i>
    <i name="e_fr_energy">   -858.63527123 </i>
    <i name="e_wo_entrp">   -858.63527123 </i>
    <i name="e_0_energy">   -858.63527123 </i>
   </energy>
  </scstep>
  <structure>
   <crystal>
    <varray name="basis" >
     <v>      13.72957181      -0.00462456      -0.00141144 </v>
     <v>      -6.86873914      11.89091482       0.00181973 </v>
     <v>      -0.00151065       0.00130727      14.89037843 </v>
    </varray>
    <i name="volume">   2430.48799023 </i>
    <varray name="rec_basis" >
     <v>       0.07284966       0.04208131       0.00000370 </v>
     <v>       0.00002833       0.08411419      -0.00000738 </v>
     <v>       0.00000690      -0.00000629       0.06715746 </v>
    </varray>
   </crystal>
   <varray name="positions" >
    <v>       0.58645889       0.68316253       0.56894419 </v>
    <v>       0.37222124       0.63709334       0.46699157 </v>
    <v>       0.43434200       0.71314014       0.48489479 </v>
    <v>       0.44329700       0.57781263       0.43465334 </v>
    <v>       0.30057133       0.58005150       0.48316897 </v>
    <v>       0.01894735       0.33453188       0.83368685 </v>
    <v>       0.21610879       0.42602813       0.53602998 </v>
    <v>       0.54669298       0.09368779       0.20254227 </v>
    <v>       0.88085412       0.76065580       0.86698994 </v>
    <v>       0.45042175       0.54489507       0.79929216 </v>
    <v>       0.12071635       0.87966814       0.13140265 </v>
    <v>       0.09361204       0.54666335       0.79738078 </v>
    <v>       0.42856066       0.21510256       0.46665157 </v>
    <v>       0.76019490       0.88027326       0.13313074 </v>
    <v>       0.21355524       0.78653716       0.53369441 </v>
    <v>       0.90053646       0.09937830       0.12387685 </v>
    <v>       0.23944426       0.12025745       0.86774576 </v>
    <v>       0.86392696       0.43115592       0.45686993 </v>
    <v>       0.43098105       0.86454043       0.54350983 </v>
    <v>       0.98239890       0.31538043       0.16696714 </v>
    <v>       0.64854801       0.00127871       0.49895403 </v>
    <v>       0.00120743       0.64727654       0.50002297 </v>
    <v>       0.33293437       0.31450199       0.16712183 </v>
    <v>       0.98108887       0.66644399       0.16657600 </v>
    <v>       0.35226689       0.35559909       0.50209595 </v>
    <v>       0.68382272       0.01796996       0.16570846 </v>
    <v>       0.66700437       0.98222393       0.83380020 </v>
    <v>       0.00267193       0.35391512       0.49974438 </v>
    <v>       0.78822296       0.21357060       0.46562517 </v>
    <v>       0.33377285       0.01853021       0.16672629 </v>
    <v>       0.90613002       0.45279109       0.20054262 </v>
    <v>       0.31495676       0.33412658       0.83348414 </v>
    <v>       0.45279336       0.90703061       0.79868373 </v>
    <v>       0.07339209       0.66844403       0.66624145 </v>
    <v>       0.66876706       0.07263761       0.33277147 </v>
    <v>       0.99852669       0.73870745       0.99998071 </v>
    <v>       0.59456009       0.92955560       0.66738528 </v>
    <v>       0.92803404       0.59328162       0.33311803 </v>
    <v>       0.26049863       0.26031351       0.00027047 </v>
    <v>       0.40447539       0.33164672       0.33461127 </v>
    <v>       0.78851299       0.57298940       0.46475554 </v>
    <v>       0.73967687       0.99896432       0.99997521 </v>
    <v>       0.57625864       0.80377152       0.53505246 </v>
    <v>       0.59409196       0.66415654       0.67986183 </v>
    <v>       0.26178625       0.00101119       0.99989257 </v>
    <v>       0.07228008       0.40456268       0.66573717 </v>
    <v>       0.40494109       0.07345300       0.33373767 </v>
    <v>       0.33494221       0.40710612       0.66353135 </v>
    <v>       0.74140481       0.74161768       0.00023500 </v>
    <v>       0.54571582       0.45299421       0.20244784 </v>
    <v>       0.88051518       0.12113683       0.86800767 </v>
    <v>       0.33274922       0.92702458       0.66638858 </v>
    <v>       0.56553759       0.43089082       0.45581592 </v>
    <v>       0.66777416       0.59547348       0.33187925 </v>
    <v>       0.92734783       0.33373698       0.33333727 </v>
    <v>       0.35322600       0.00084392       0.50024937 </v>
    <v>       0.31502355       0.98228146       0.83304298 </v>
    <v>       0.90199301       0.80307672       0.12425086 </v>
    <v>       0.23427198       0.76574418       0.79056799 </v>
    <v>       0.11948569       0.23881805       0.13246597 </v>
    <v>       0.56844974       0.13580978       0.45500431 </v>
    <v>       0.23433593       0.46864044       0.78895642 </v>
    <v>       0.19790924       0.09853298       0.12372238 </v>
    <v>       0.00015220       0.26093934       0.00032496 </v>
    <v>       0.09950058       0.90111882       0.87711931 </v>
    <v>       0.80314553       0.90225157       0.87538548 </v>
    <v>       0.41967239       0.54806681       0.58930042 </v>
    <v>       0.53092653       0.76687498       0.79002682 </v>
    <v>       0.76535691       0.53056590       0.21036950 </v>
    <v>       0.13730310       0.56739509       0.54484823 </v>
    <v>       0.46891858       0.23471859       0.20975314 </v>
    <v>       0.65490913       0.64191312       0.49171141 </v>
    <v>       0.76608923       0.23410019       0.20915482 </v>
    <v>       0.66713431       0.68588373       0.83555776 </v>
    <v>       0.01867470       0.68486090       0.83338560 </v>
    <v>       0.09913885       0.19855528       0.87672737 </v>
    <v>       0.68537899       0.66618225       0.16557315 </v>
    <v>       0.56197373       0.89469403       0.77092286 </v>
    <v>       0.99909931       0.77176318       0.89480121 </v>
    <v>       0.89470247       0.33353204       0.22766875 </v>
    <v>       0.77123927       0.99910540       0.10507355 </v>
    <v>       0.10161492       0.43768661       0.56295005 </v>
    <v>       0.33535362       0.44083202       0.77527634 </v>
    <v>      -0.00024266       0.77187972       0.10509815 </v>
    <v>       0.33425668       0.89536176       0.77198818 </v>
    <v>       0.22832945       0.99955846       0.10496459 </v>
    <v>       0.22765102       0.22748094       0.10555027 </v>
    <v>       0.10448922       0.43866231       0.77245492 </v>
    <v>       0.66769332       0.10406393       0.43837496 </v>
    <v>      -0.00017520       0.22783288       0.10551760 </v>
    <v>       0.89354238       0.33290401       0.43786456 </v>
    <v>       0.33416212       0.89520478       0.56178160 </v>
    <v>       0.89334955       0.56115889       0.43821259 </v>
    <v>       0.10533302       0.66758308       0.77199145 </v>
    <v>       0.31936385       0.41761715       0.56783908 </v>
    <v>       0.89427183       0.56101270       0.22813705 </v>
    <v>       0.77233034       0.77250881       0.10519021 </v>
    <v>       0.66899197       0.56820572       0.44038699 </v>
    <v>       0.44254572       0.33293693       0.43663060 </v>
    <v>       0.10520542       0.66852174       0.56180900 </v>
    <v>       0.22833471       0.00028404       0.89490403 </v>
    <v>       0.66682346       0.56227321       0.22906383 </v>
    <v>       0.56460320       0.66811938       0.76765608 </v>
    <v>       0.99930696       0.22790890       0.89541518 </v>
    <v>       0.77171575       0.77215658       0.89387959 </v>
    <v>       0.66680089       0.10472069       0.22811103 </v>
    <v>       0.22769563       0.22759773       0.89555548 </v>
    <v>       0.43888450       0.33370540       0.22802202 </v>
    <v>       0.77182230      -0.00028619       0.89429844 </v>
    <v>       0.56503580       0.89248035       0.56184093 </v>
    <v>       0.43876826       0.10539295       0.22834568 </v>
    <v>       0.43992918       0.10557605       0.43831737 </v>
   </varray>
  </structure>
  <varray name="forces" >
   <v>      -1.83966555      -1.55259932      -1.24019094 </v>
   <v>      10.30268930      -0.54160420      -3.17336561 </v>
   <v>       0.06468956       3.47072049       0.67697103 </v>
   <v>      -3.92042591       1.84052123       0.52955818 </v>
   <v>      -5.89488437      -5.48401186       1.78490022 </v>
   <v>      -0.06893871      -0.53898988       0.37852744 </v>
   <v>      -4.53599853      -0.54817543      -0.47145366 </v>
   <v>       0.22001299      -0.01378891      -0.01469425 </v>
   <v>      -0.54655391       0.01669315      -0.05283240 </v>
   <v>       1.70047530       2.72797292       0.20253951 </v>
   <v>      -0.09505190      -0.16537022       0.00246161 </v>
   <v>      -0.33470440       0.45963918       0.00912849 </v>
   <v>       0.52180604      -1.14208188       0.04703240 </v>
   <v>       0.07819405      -0.14087990       0.05465474 </v>
   <v>       0.14123580       0.29031762      -0.01605799 </v>
   <v>      -0.13619046      -0.24816820       0.00276473 </v>
   <v>       0.13528249      -0.24477219       0.01222408 </v>
   <v>      -0.25170094       0.50070809       0.03061519 </v>
   <v>       1.67052125       0.13825273       0.10807697 </v>
   <v>       0.00155597      -0.00575284      -0.00179359 </v>
   <v>       0.06458054      -0.56390931       0.76668794 </v>
   <v>      -0.70597000      -0.33493283      -0.55338439 </v>
   <v>      -0.04033577      -0.00796977      -0.02765948 </v>
   <v>       0.00319167       0.01081055       0.00096732 </v>
   <v>       3.83917056      -2.85368951      -3.97220672 </v>
   <v>       0.08087257      -0.07191542      -0.05582149 </v>
   <v>      -0.26991185      -0.14263978      -0.27047791 </v>
   <v>      -1.33392718      -0.94665847      -1.18117857 </v>
   <v>      -0.29619751      -0.55179451       0.01379979 </v>
   <v>      -0.03955222      -0.03494562      -0.04197592 </v>
   <v>      -0.10258342       0.19629142       0.01196278 </v>
   <v>       0.03333610      -0.80527374       0.50936338 </v>
   <v>       0.84607340       0.03085890      -0.01315786 </v>
   <v>      -0.09326419      -0.03591275       0.47339532 </v>
   <v>       0.00703037      -0.01528404       0.16196677 </v>
   <v>       0.00914129       0.00081409      -0.05844237 </v>
   <v>       0.12492186       0.12679595      -0.53411139 </v>
   <v>       0.01391764       0.01832966       0.09275483 </v>
   <v>       0.01224913       0.02446259       0.18450636 </v>
   <v>      -0.10240960      -0.03440178      -1.20512239 </v>
   <v>      -1.39850248      -0.01730223       0.10799782 </v>
   <v>       0.01440048       0.00754201      -0.17730200 </v>
   <v>      10.72355488     -14.18368201      -3.78279111 </v>
   <v>       5.22037642       0.55462032     -13.28920223 </v>
   <v>       0.00204757       0.00584318       0.01802298 </v>
   <v>      -0.17804696      -0.18435679       1.57158574 </v>
   <v>       0.00251864      -0.00445143      -0.23443446 </v>
   <v>       0.98046278      -3.72834960      11.37558984 </v>
   <v>       0.04188956       0.05340196      -0.31309517 </v>
   <v>       0.32249186       0.60092185      -0.04313812 </v>
   <v>      -0.29635115      -0.51501781      -0.01929649 </v>
   <v>      -0.10097915       0.02359652       0.36529679 </v>
   <v>       1.53815224       2.58584318       0.01646405 </v>
   <v>       0.02220899       0.03520284       1.17098078 </v>
   <v>       0.01421402      -0.00644815      -0.26702037 </v>
   <v>      -0.09503242       0.02406712      -0.01500208 </v>
   <v>       0.01721540      -0.02913601      -0.02786396 </v>
   <v>      -0.22600096       0.01536834       0.02522462 </v>
   <v>       0.06629694       0.18660448      -0.00553804 </v>
   <v>      -0.08221949       0.00653289      -0.01593260 </v>
   <v>       0.55303912       0.05993256      -0.03712220 </v>
   <v>      -0.34190773      -0.10246533      -0.02003477 </v>
   <v>       0.05246807      -0.08927382      -0.01338568 </v>
   <v>      -0.00204485       0.01634010       0.09161568 </v>
   <v>      -0.13044822      -0.20398369      -0.00442535 </v>
   <v>       0.20449025      -0.23345921      -0.04110763 </v>
   <v>       0.32531849       5.26497344      -3.83226371 </v>
   <v>       0.66812137      -0.89182657      -0.10026042 </v>
   <v>      -0.29506976       0.00655697      -0.03447891 </v>
   <v>      -0.62303969       0.93400935       0.00337063 </v>
   <v>       0.04655788      -0.07524795       0.00989572 </v>
   <v>      -9.57527530      11.26800998      10.41847963 </v>
   <v>      -0.09014019      -0.15892220       0.00398711 </v>
   <v>      -0.77023675      -0.51018248      -0.40813069 </v>
   <v>      -0.34851261       0.13528750       0.24478510 </v>
   <v>      -0.17913340      -0.00879651       0.01543755 </v>
   <v>      -0.02287847      -0.03615114       0.03479961 </v>
   <v>      -0.69393227       0.44624161       0.77988559 </v>
   <v>       0.44032825       0.02818452       0.06379593 </v>
   <v>       0.15241413       0.01307152       0.18220016 </v>
   <v>       0.03483282       0.21702483       0.04021197 </v>
   <v>       2.41347956       0.31813460      -0.39739106 </v>
   <v>      -0.90985033      -1.35548627      -2.21548319 </v>
   <v>       0.18266476       0.04405014       0.01700592 </v>
   <v>      -0.38807893      -0.07975617      -0.20922404 </v>
   <v>       0.01967555       0.12511572       0.01083445 </v>
   <v>       0.01217455       0.06561404      -0.03437548 </v>
   <v>       0.53392622       0.02462387      -0.75808939 </v>
   <v>      -0.39699030       0.97938599      -0.38752480 </v>
   <v>       0.09996109       0.16833018      -0.01966121 </v>
   <v>       0.86653339       0.26344757       0.31698941 </v>
   <v>      -0.42035134      -0.02671613      -0.09330909 </v>
   <v>       1.43735565      -0.20927088      -0.12334102 </v>
   <v>       0.32365070      -0.28821934      -0.26599184 </v>
   <v>      -1.13901305       3.58044393      -3.88008794 </v>
   <v>       0.20671524      -0.09973156      -0.05349037 </v>
   <v>       0.11299841       0.10930862       0.05766743 </v>
   <v>       8.77765690     -12.02943120      -9.87219199 </v>
   <v>      -2.51113305      -0.02314531       1.39891435 </v>
   <v>       1.00328467      -0.56687253      -0.04031827 </v>
   <v>       0.03940896       0.21488138      -0.04821327 </v>
   <v>       0.12650441      -0.51619016      -0.79106930 </v>
   <v>      -5.03980906      -0.41270005      14.78379310 </v>
   <v>       0.22282598       0.41102334      -0.12963960 </v>
   <v>       0.52429325       0.42096028       0.68776273 </v>
   <v>      -0.13544989       0.18579964      -0.07632255 </v>
   <v>       0.07584117       0.37466522      -0.32094230 </v>
   <v>      -0.28714921      -0.30843060       0.56083898 </v>
   <v>       0.07611163       0.43678609       0.21874149 </v>
   <v>     -10.39030775      13.49112250       4.23739327 </v>
   <v>      -0.14740634       0.06565546       0.16584786 </v>
   <v>      -0.54585262       0.29881132       0.23214425 </v>
  </varray>
  <varray name="stress" >
   <v>     -16.52873772      -5.77499901      -7.23294040 </v>
   <v>      -5.77499901      -1.68209911       8.94441539 </v>
   <v>      -7.23294038       8.94441535       3.42023615 </v>
  </varray>
  <energy>
   <i name="e_fr_energy">   -858.63527123 </i>
   <i name="e_wo_entrp">   -858.63527123 </i>
   <i name="e_0_energy">     -0.00000000 </i>
  </energy>
  <time name="totalsc">   58.90   59.17</time>
 </calculation>
 <calculation>
  <scstep>
   <time name="dav">    1.96    1.97</time>
   <time name="total">    2.08    2.09</time>
   <energy>
    <i name="alphaZ">    476.21782353 </i>
    <i name="ewald">  -2189.47570455 </i>
    <i name="hartreedc"> -30875.92490910 </i>
    <i name="XCdc">   1803.98870051 </i>
    <i name="pawpsdc">  95225.10096715 </i>
    <i name="pawaedc"> -94733.39193944 </i>
    <i name="eentropy">     -0.00000000 </i>
    <i name="bandstr">  -5532.14152155 </i>
    <i name="atom">  34968.35250874 </i>
    <i name="e_fr_energy">   -857.27407471 </i>
    <i name="e_wo_entrp">   -857.27407471 </i>
    <i name="e_0_energy">   -857.27407471 </i>
   </energy>
  </scstep>
  <scstep>
   <time name="dav">    2.25    2.26</time>
   <time name="total">    2.37    2.38</time>
   <energy>
    <i name="e_fr_energy">   -869.48450406 </i>
    <i name="e_wo_entrp">   -869.48450406 </i>
    <i name="e_0_energy">   -869.48450406 </i>
   </energy>
  </scstep>
  <scstep>
   <time name="dav">    2.19    2.19</time>
   <time name="total">    2.30    2.31</time>
   <energy>
    <i name="e_fr_energy">   -868.08395964 </i>
    <i name="e_wo_entrp">   -868.08395964 </i>
    <i name="e_0_energy">   -868.08395964 </i>
   </energy>
  </scstep>
  <scstep>
   <time name="dav">    2.21    2.21</time>
   <time name="total">    2.32    2.33</time>
   <energy>
    <i name="e_fr_energy">   -867.77179561 </i>
    <i name="e_wo_entrp">   -867.77179561 </i>
    <i name="e_0_energy">   -867.77179561 </i>
   </energy>
  </scstep>
  <scstep>
   <time name="dav">    2.43    2.44</time>
   <time name="total">    2.54    2.55</time>
   <energy>
    <i name="e_fr_energy">   -867.78692162 </i>
    <i name="e_wo_entrp">   -867.78692162 </i>
    <i name="e_0_energy">   -867.78692162 </i>
   </energy>
  </scstep>
  <scstep>
   <time name="dav">    2.12    2.12</time>
   <time name="total">    2.23    2.24</time>
   <energy>
    <i name="e_fr_energy">   -867.72120964 </i>
    <i name="e_wo_entrp">   -867.72120964 </i>
    <i name="e_0_energy">   -867.72120964 </i>
   </energy>
  </scstep>
  <scstep>
   <time name="dav">    2.19    2.20</time>
   <time name="total">    2.31    2.32</time>
   <energy>
    <i name="e_fr_energy">   -867.72550764 </i>
    <i name="e_wo_entrp">   -867.72550764 </i>
    <i name="e_0_energy">   -867.72550764 </i>
   </energy>
  </scstep>
  <scstep>
   <time name="dav">    2.13    2.13</time>
   <time name="total">    2.24    2.25</time>
   <energy>
    <i name="e_fr_energy">   -867.72519453 </i>
    <i name="e_wo_entrp">   -867.72519453 </i>
    <i name="e_0_energy">   -867.72519453 </i>
   </energy>
  </scstep>
  <scstep>
   <time name="dav">    2.08    2.08</time>
   <time name="total">    2.19    2.20</time>
   <energy>
    <i name="e_fr_energy">   -867.72553345 </i>
    <i name="e_wo_entrp">   -867.72553345 </i>
    <i name="e_0_energy">   -867.72553345 </i>
   </energy>
  </scstep>
  <scstep>
   <time name="dav">    2.16    2.16</time>
   <time name="total">    2.27    2.28</time>
   <energy>
    <i name="e_fr_energy">   -867.72676242 </i>
    <i name="e_wo_entrp">   -867.72676242 </i>
    <i name="e_0_energy">   -867.72676242 </i>
   </energy>
  </scstep>
  <scstep>
   <time name="dav">    2.16    2.16</time>
   <time name="total">    2.27    2.29</time>
   <energy>
    <i name="e_fr_energy">   -867.72744206 </i>
    <i name="e_wo_entrp">   -867.72744206 </i>
    <i name="e_0_energy">   -867.72744206 </i>
   </energy>
  </scstep>
  <scstep>
   <time name="dav">    2.12    2.12</time>
   <time name="total">    2.23    2.25</time>
   <energy>
    <i name="e_fr_energy">   -867.72776328 </i>
    <i name="e_wo_entrp">   -867.72776328 </i>
    <i name="e_0_energy">   -867.72776328 </i>
   </energy>
  </scstep>
  <scstep>
   <time name="dav">    2.19    2.20</time>
   <time name="total">    2.30    2.31</time>
   <energy>
    <i name="e_fr_energy">   -867.72849727 </i>
    <i name="e_wo_entrp">   -867.72849727 </i>
    <i name="e_0_energy">   -867.72849727 </i>
   </energy>
  </scstep>
  <scstep>
   <time name="dav">    2.19    2.20</time>
   <time name="total">    2.31    2.32</time>
   <energy>
    <i name="e_fr_energy">   -867.72876124 </i>
    <i name="e_wo_entrp">   -867.72876124 </i>
    <i name="e_0_energy">   -867.72876124 </i>
   </energy>
  </scstep>
  <scstep>
   <time name="dav">    2.21    2.22</time>
   <time name="total">    2.34    2.35</time>
   <energy>
    <i name="e_fr_energy">   -867.72881793 </i>
    <i name="e_wo_entrp">   -867.72881793 </i>
    <i name="e_0_energy">   -867.72881793 </i>
   </energy>
  </scstep>
  <scstep>
   <time name="dav">    2.06    2.07</time>
   <time name="total">    2.22    2.23</time>
   <energy>
    <i name="e_fr_energy">   -867.72885883 </i>
    <i name="e_wo_entrp">   -867.72885883 </i>
    <i name="e_0_energy">   -867.72885883 </i>
   </energy>
  </scstep>
  <scstep>
   <time name="dav">    1.99    2.00</time>
   <time name="total">    2.15    2.16</time>
   <energy>
    <i name="e_fr_energy">   -867.72892209 </i>
    <i name="e_wo_entrp">   -867.72892209 </i>
    <i name="e_0_energy">   -867.72892209 </i>
   </energy>
  </scstep>
  <scstep>
   <time name="dav">    1.74    1.74</time>
   <time name="total">    1.85    1.86</time>
   <energy>
    <i name="e_fr_energy">   -867.72893709 </i>
    <i name="e_wo_entrp">   -867.72893709 </i>
    <i name="e_0_energy">   -867.72893709 </i>
   </energy>
  </scstep>
  <scstep>
   <time name="dav">    1.57    1.58</time>
   <time name="total">    1.69    1.70</time>
   <energy>
    <i name="e_fr_energy">   -867.72894246 </i>
[...]
       <r>   -18.3582     0.0000   144.0000 </r>
       <r>   -18.2508     0.0000   144.0000 </r>
       <r>   -18.1433     0.0000   144.0000 </r>
       <r>   -18.0359     0.0000   144.0000 </r>
       <r>   -17.9285     0.0000   144.0000 </r>
       <r>   -17.8211     0.0000   144.0000 </r>
       <r>   -17.7136     0.0000   144.0000 </r>
       <r>   -17.6062     0.0000   144.0000 </r>
       <r>   -17.4988     0.0000   144.0000 </r>
       <r>   -17.3913     0.0000   144.0000 </r>
       <r>   -17.2839     0.0000   144.0000 </r>
       <r>   -17.1765     0.0000   144.0000 </r>
       <r>   -17.0691     0.0000   144.0000 </r>
       <r>   -16.9616     0.0000   144.0000 </r>
       <r>   -16.8542     0.0000   144.0000 </r>
       <r>   -16.7468     0.0000   144.0000 </r>
       <r>   -16.6393     0.0000   144.0000 </r>
       <r>   -16.5319     0.0000   144.0000 </r>
       <r>   -16.4245     0.0000   144.0000 </r>
       <r>   -16.3171     0.0000   144.0000 </r>
       <r>   -16.2096     0.0000   144.0000 </r>
       <r>   -16.1022     0.0000   144.0000 </r>
       <r>   -15.9948     0.0000   144.0000 </r>
       <r>   -15.8873     0.0000   144.0000 </r>
       <r>   -15.7799     0.0000   144.0000 </r>
       <r>   -15.6725     0.0000   144.0000 </r>
       <r>   -15.5651     0.0000   144.0000 </r>
       <r>   -15.4576     0.0000   144.0000 </r>
       <r>   -15.3502     0.0000   144.0000 </r>
       <r>   -15.2428     0.0000   144.0000 </r>
       <r>   -15.1353     0.0000   144.0000 </r>
       <r>   -15.0279     0.0000   144.0000 </r>
       <r>   -14.9205     0.0000   144.0000 </r>
       <r>   -14.8131     0.0000   144.0000 </r>
       <r>   -14.7056     0.0000   144.0000 </r>
       <r>   -14.5982     0.0000   144.0000 </r>
       <r>   -14.4908     0.0000   144.0000 </r>
       <r>   -14.3833     0.0000   144.0000 </r>
       <r>   -14.2759     0.0000   144.0000 </r>
       <r>   -14.1685     0.0000   144.0000 </r>
       <r>   -14.0611     0.0000   144.0000 </r>
       <r>   -13.9536     0.0000   144.0000 </r>
       <r>   -13.8462     0.0000   144.0000 </r>
       <r>   -13.7388     0.0000   144.0000 </r>
       <r>   -13.6313     0.0029   144.0003 </r>
       <r>   -13.5239     0.3380   144.0366 </r>
       <r>   -13.4165     4.9480   144.5682 </r>
       <r>   -13.3091    10.1366   145.6571 </r>
       <r>   -13.2016     3.0650   145.9864 </r>
       <r>   -13.0942     0.1259   145.9999 </r>
       <r>   -12.9868     0.0006   146.0000 </r>
       <r>   -12.8793     0.0000   146.0000 </r>
       <r>   -12.7719     0.0000   146.0000 </r>
       <r>   -12.6645     0.0000   146.0000 </r>
       <r>   -12.5571     0.0000   146.0000 </r>
       <r>   -12.4496     0.0109   146.0012 </r>
       <r>   -12.3422     0.7755   146.0845 </r>
       <r>   -12.2348     7.0030   146.8368 </r>
       <r>   -12.1274     9.0675   147.8109 </r>
       <r>   -12.0199     1.7172   147.9954 </r>
       <r>   -11.9125     0.0592   148.0017 </r>
       <r>   -11.8051     1.2098   148.1317 </r>
       <r>   -11.6976    12.2121   149.4436 </r>
       <r>   -11.5902    19.5281   151.5415 </r>
       <r>   -11.4828    13.4728   152.9889 </r>
       <r>   -11.3754    24.0051   155.5677 </r>
       <r>   -11.2679    22.5043   157.9853 </r>
       <r>   -11.1605    15.5816   159.6592 </r>
       <r>   -11.0531    10.1789   160.7527 </r>
       <r>   -10.9456    15.9410   162.4652 </r>
       <r>   -10.8382    12.5035   163.8085 </r>
       <r>   -10.7308    11.7061   165.0660 </r>
       <r>   -10.6234    36.7809   169.0173 </r>
       <r>   -10.5159    49.2331   174.3064 </r>
       <r>   -10.4085    31.7734   177.7197 </r>
       <r>   -10.3011    17.8203   179.6342 </r>
       <r>   -10.1936    14.5535   181.1976 </r>
       <r>   -10.0862     8.1125   182.0691 </r>
       <r>    -9.9788     9.2316   183.0609 </r>
       <r>    -9.8714    15.6550   184.7427 </r>
       <r>    -9.7639    38.1350   188.8394 </r>
       <r>    -9.6565    42.9383   193.4522 </r>
       <r>    -9.5491    21.3647   195.7474 </r>
       <r>    -9.4416    10.9987   196.9290 </r>
       <r>    -9.3342    10.2597   198.0312 </r>
       <r>    -9.2268    13.1250   199.4412 </r>
       <r>    -9.1194    19.2866   201.5131 </r>
       <r>    -9.0119    15.2753   203.1541 </r>
       <r>    -8.9045     7.2026   203.9279 </r>
       <r>    -8.7971     3.0667   204.2573 </r>
       <r>    -8.6896    18.9243   206.2903 </r>
       <r>    -8.5822    39.9321   210.5802 </r>
       <r>    -8.4748    41.6859   215.0584 </r>
       <r>    -8.3674    43.1964   219.6990 </r>
       <r>    -8.2599    62.1820   226.3791 </r>
       <r>    -8.1525    77.5676   234.7121 </r>
       <r>    -8.0451    76.0239   242.8792 </r>
       <r>    -7.9376    67.1885   250.0971 </r>
       <r>    -7.8302    87.3034   259.4760 </r>
       <r>    -7.7228    77.0677   267.7553 </r>
       <r>    -7.6154    45.5693   272.6507 </r>
       <r>    -7.5079    33.8565   276.2879 </r>
       <r>    -7.4005    38.6690   280.4420 </r>
       <r>    -7.2931    35.4321   284.2484 </r>
       <r>    -7.1856    28.5170   287.3120 </r>
       <r>    -7.0782    19.2212   289.3769 </r>
       <r>    -6.9708     5.4784   289.9654 </r>
       <r>    -6.8634     0.3224   290.0001 </r>
       <r>    -6.7559     0.3540   290.0381 </r>
       <r>    -6.6485     5.0538   290.5810 </r>
       <r>    -6.5411    11.1416   291.7779 </r>
       <r>    -6.4336    11.0713   292.9673 </r>
       <r>    -6.3262    15.4408   294.6261 </r>
       <r>    -6.2188    28.4673   297.6843 </r>
       <r>    -6.1114    30.4686   300.9575 </r>
       <r>    -6.0039    48.7437   306.1939 </r>
       <r>    -5.8965    89.4837   315.8070 </r>
       <r>    -5.7891    86.6975   325.1208 </r>
       <r>    -5.6816    65.1036   332.1148 </r>
       <r>    -5.5742    58.2882   338.3766 </r>
       <r>    -5.4668    39.2025   342.5881 </r>
       <r>    -5.3594    20.9074   344.8341 </r>
       <r>    -5.2519    30.4559   348.1059 </r>
       <r>    -5.1445    48.4902   353.3152 </r>
       <r>    -5.0371    72.4779   361.1013 </r>
       <r>    -4.9296    85.0246   370.2354 </r>
       <r>    -4.8222    64.1981   377.1321 </r>
       <r>    -4.7148    49.5606   382.4563 </r>
       <r>    -4.6074    82.8846   391.3605 </r>
       <r>    -4.4999   136.0365   405.9747 </r>
       <r>    -4.3925   170.8165   424.3252 </r>
       <r>    -4.2851   159.6914   441.4806 </r>
       <r>    -4.1776   137.2352   456.2236 </r>
       <r>    -4.0702   120.3118   469.1485 </r>
       <r>    -3.9628   122.2076   482.2771 </r>
       <r>    -3.8554   124.0380   495.6023 </r>
       <r>    -3.7479   115.0605   507.9631 </r>
       <r>    -3.6405    93.2501   517.9808 </r>
       <r>    -3.5331    51.9059   523.5569 </r>
       <r>    -3.4256    27.1681   526.4756 </r>
       <r>    -3.3182    26.3116   529.3022 </r>
       <r>    -3.2108    56.9100   535.4159 </r>
       <r>    -3.1034    80.8214   544.0985 </r>
       <r>    -2.9959    83.5373   553.0727 </r>
       <r>    -2.8885    82.8003   561.9679 </r>
       <r>    -2.7811    84.2563   571.0194 </r>
       <r>    -2.6736    63.9804   577.8927 </r>
       <r>    -2.5662    19.4227   579.9793 </r>
       <r>    -2.4588     8.9941   580.9455 </r>
       <r>    -2.3514     8.4539   581.8537 </r>
       <r>    -2.2439     1.3346   581.9970 </r>
       <r>    -2.1365     0.0275   582.0000 </r>
       <r>    -2.0291     0.0001   582.0000 </r>
       <r>    -1.9216     0.0000   582.0000 </r>
       <r>    -1.8142     0.0000   582.0000 </r>
       <r>    -1.7068     0.0000   582.0000 </r>
       <r>    -1.5994     0.0000   582.0000 </r>
       <r>    -1.4919     0.0000   582.0000 </r>
       <r>    -1.3845     0.0000   582.0000 </r>
       <r>    -1.2771     0.0000   582.0000 </r>
       <r>    -1.1696     0.0000   582.0000 </r>
       <r>    -1.0622     0.0000   582.0000 </r>
       <r>    -0.9548     0.0000   582.0000 </r>
       <r>    -0.8474     0.0000   582.0000 </r>
       <r>    -0.7399     0.0000   582.0000 </r>
       <r>    -0.6325     0.0000   582.0000 </r>
       <r>    -0.5251     0.0000   582.0000 </r>
       <r>    -0.4176     0.0000   582.0000 </r>
       <r>    -0.3102     0.0000   582.0000 </r>
       <r>    -0.2028     0.0000   582.0000 </r>
       <r>    -0.0954     0.0000   582.0000 </r>
       <r>     0.0121     0.0000   582.0000 </r>
       <r>     0.1195     0.0000   582.0000 </r>
       <r>     0.2269     0.0000   582.0000 </r>
       <r>     0.3344     0.0000   582.0000 </r>
       <r>     0.4418     0.0000   582.0000 </r>
       <r>     0.5492     0.0000   582.0000 </r>
       <r>     0.6566     0.0000   582.0000 </r>
       <r>     0.7641     0.0000   582.0000 </r>
       <r>     0.8715     0.0000   582.0000 </r>
       <r>     0.9789     0.0000   582.0000 </r>
       <r>     1.0863     0.0000   582.0000 </r>
       <r>     1.1938     0.0000   582.0000 </r>
       <r>     1.3012     0.0000   582.0000 </r>
       <r>     1.4086     0.0000   582.0000 </r>
       <r>     1.5161     0.0000   582.0000 </r>
       <r>     1.6235     0.0000   582.0000 </r>
       <r>     1.7309     0.0000   582.0000 </r>
       <r>     1.8383     0.0000   582.0000 </r>
       <r>     1.9458     0.0000   582.0000 </r>
       <r>     2.0532     0.0000   582.0000 </r>
       <r>     2.1606     0.0000   582.0000 </r>
       <r>     2.2681     0.0000   582.0000 </r>
       <r>     2.3755     0.0000   582.0000 </r>
       <r>     2.4829     0.0000   582.0000 </r>
       <r>     2.5903     0.0000   582.0000 </r>
       <r>     2.6978     0.0172   582.0018 </r>
       <r>     2.8052     1.0142   582.1108 </r>
       <r>     2.9126     7.7180   582.9399 </r>
       <r>     3.0201     8.4829   583.8512 </r>
       <r>     3.1275     1.3564   583.9970 </r>
       <r>     3.2349     0.0283   584.0000 </r>
       <r>     3.3423     0.0001   584.0000 </r>
       <r>     3.4498     0.0092   584.0010 </r>
       <r>     3.5572     0.7053   584.0768 </r>
       <r>     3.6646     7.2988   584.8609 </r>
       <r>     3.7721    15.4696   586.5227 </r>
       <r>     3.8795    11.8543   587.7962 </r>
       <r>     3.9869     7.5368   588.6059 </r>
       <r>     4.0943    10.6446   589.7494 </r>
       <r>     4.2018    12.0607   591.0451 </r>
       <r>     4.3092    28.3061   594.0860 </r>
       <r>     4.4166    18.7974   596.1053 </r>
       <r>     4.5241    11.8585   597.3793 </r>
       <r>     4.6315    12.5809   598.7308 </r>
       <r>     4.7389    19.3954   600.8144 </r>
       <r>     4.8463    11.3717   602.0361 </r>
       <r>     4.9538    15.3967   603.6901 </r>
       <r>     5.0612    39.3730   607.9199 </r>
       <r>     5.1686    64.4426   614.8429 </r>
       <r>     5.2761    58.7838   621.1579 </r>
       <r>     5.3835    24.2315   623.7611 </r>
       <r>     5.4909    10.9175   624.9339 </r>
       <r>     5.5983    11.3076   626.1487 </r>
       <r>     5.7058    18.3034   628.1150 </r>
       <r>     5.8132    30.0677   631.3451 </r>
       <r>     5.9206    28.4037   634.3965 </r>
       <r>     6.0281    35.4082   638.2003 </r>
       <r>     6.1355    41.2575   642.6325 </r>
       <r>     6.2429    68.4432   649.9853 </r>
       <r>     6.3503    84.6814   659.0825 </r>
       <r>     6.4578    81.9017   667.8811 </r>
       <r>     6.5652    97.7227   678.3793 </r>
       <r>     6.6726    95.9260   688.6844 </r>
       <r>     6.7801    91.6979   698.5354 </r>
       <r>     6.8875    44.5963   703.3263 </r>
       <r>     6.9949     6.1043   703.9821 </r>
       <r>     7.1023     0.1661   703.9999 </r>
       <r>     7.2098     0.0007   704.0000 </r>
       <r>     7.3172     0.0000   704.0000 </r>
       <r>     7.4246     0.0000   704.0000 </r>
       <r>     7.5321     0.0000   704.0000 </r>
       <r>     7.6395     0.0000   704.0000 </r>
       <r>     7.7469     0.0000   704.0000 </r>
       <r>     7.8543     0.0000   704.0000 </r>
       <r>     7.9618     0.0000   704.0000 </r>
       <r>     8.0692     0.0000   704.0000 </r>
       <r>     8.1766     0.0000   704.0000 </r>
       <r>     8.2841     0.0000   704.0000 </r>
      </set>
     </set>
    </array>
   </total>
  </dos>
 </calculation>
 <structure name="finalpos" >
  <crystal>
   <varray name="basis" >
    <v>      13.72957181      -0.00462456      -0.00141144 </v>
    <v>      -6.86873914      11.89091482       0.00181973 </v>
    <v>      -0.00151065       0.00130727      14.89037843 </v>
   </varray>
   <i name="volume">   2430.48799023 </i>
   <varray name="rec_basis" >
    <v>       0.07284966       0.04208131       0.00000370 </v>
    <v>       0.00002833       0.08411419      -0.00000738 </v>
    <v>       0.00000690      -0.00000629       0.06715746 </v>
   </varray>
  </crystal>
  <varray name="positions" >
   <v>       0.57240602       0.67446068       0.56827017 </v>
   <v>       0.38740092       0.61230801       0.45004140 </v>
   <v>       0.42493803       0.70357282       0.45306948 </v>
   <v>       0.42125534       0.58732000       0.39351497 </v>
   <v>       0.29598611       0.57286335       0.44574402 </v>
   <v>       0.01555082       0.33442612       0.83943842 </v>
   <v>       0.20537246       0.41305022       0.54791252 </v>
   <v>       0.54877801       0.09559507       0.20322114 </v>
   <v>       0.87777259       0.76073973       0.86575626 </v>
   <v>       0.44386711       0.55187302       0.81710205 </v>
   <v>       0.12290078       0.87976406       0.13065194 </v>
   <v>       0.09161847       0.54693348       0.80128425 </v>
   <v>       0.41616648       0.20893994       0.46337982 </v>
   <v>       0.76281713       0.87993786       0.14035801 </v>
   <v>       0.22009592       0.78257927       0.53834201 </v>
   <v>       0.90234249       0.09864907       0.12995770 </v>
   <v>       0.23739252       0.11989601       0.86650148 </v>
   <v>       0.87450820       0.43756042       0.45633849 </v>
   <v>       0.43890302       0.86924468       0.54666303 </v>
   <v>       0.98556374       0.31586488       0.16800048 </v>
   <v>       0.65254159       0.01340158       0.50806089 </v>
   <v>       0.00873496       0.65189106       0.49648849 </v>
   <v>       0.33554487       0.31525446       0.16549348 </v>
   <v>       0.98612666       0.66554505       0.16417822 </v>
   <v>       0.36337356       0.36418579       0.50161768 </v>
   <v>       0.68494652       0.01662137       0.17082635 </v>
   <v>       0.66217646       0.98260015       0.84363032 </v>
   <v>      -0.00037031       0.34640158       0.50051673 </v>
   <v>       0.78528280       0.21984808       0.46278218 </v>
   <v>       0.33627314       0.01899131       0.16458885 </v>
   <v>       0.90921950       0.45228885       0.20139067 </v>
   <v>       0.31102072       0.33233569       0.83089850 </v>
   <v>       0.44946106       0.90408790       0.80494485 </v>
   <v>       0.07008580       0.66276288       0.66634284 </v>
   <v>       0.66341666       0.07067790       0.33675968 </v>
   <v>       0.99665779       0.74070871      -0.00057182 </v>
   <v>       0.59697757       0.94373708       0.67489013 </v>
   <v>       0.92956816       0.59577267       0.33101535 </v>
   <v>       0.25935298       0.26064078      -0.00102716 </v>
   <v>       0.40726495       0.33959061       0.33352748 </v>
   <v>       0.79218742       0.57334207       0.46621946 </v>
   <v>       0.74295225       0.99782172       0.00585134 </v>
   <v>       0.58953291       0.80397170       0.54625386 </v>
   <v>       0.57996218       0.64442626       0.67836044 </v>
   <v>       0.26110354       0.00101170      -0.00168601 </v>
   <v>       0.05663872       0.39983195       0.67050498 </v>
   <v>       0.40201013       0.06733737       0.33365538 </v>
   <v>       0.35481754       0.42616456       0.66970662 </v>
   <v>       0.74817944       0.74726443       0.00412579 </v>
   <v>       0.54905030       0.45127386       0.19846040 </v>
   <v>       0.87708494       0.12042934       0.87094150 </v>
   <v>       0.33591641       0.92930146       0.66833339 </v>
   <v>       0.57490110       0.42315271       0.45290142 </v>
   <v>       0.67129283       0.58705906       0.33168466 </v>
   <v>       0.93400467       0.33517179       0.33365608 </v>
   <v>       0.35117668      -0.00192044       0.50121142 </v>
   <v>       0.31272204       0.98204253       0.83243653 </v>
   <v>       0.90423258       0.80190898       0.13019876 </v>
   <v>       0.23161858       0.76548925       0.78930448 </v>
   <v>       0.12187348       0.23857558       0.13427445 </v>
   <v>       0.56582586       0.14068843       0.45558498 </v>
   <v>       0.22757220       0.46386862       0.78359800 </v>
   <v>       0.20042553       0.09921220       0.12267566 </v>
   <v>       0.00006780       0.25743017       0.00331142 </v>
   <v>       0.09694870       0.90135916       0.87590962 </v>
   <v>       0.80139732       0.90247910       0.87631102 </v>
   <v>       0.41660758       0.57697683       0.53512963 </v>
   <v>       0.53429239       0.77012000       0.78934321 </v>
   <v>       0.76914724       0.53002858       0.20428749 </v>
   <v>       0.13572325       0.56236629       0.54618971 </v>
   <v>       0.46770431       0.23326577       0.21457805 </v>
   <v>       0.64292610       0.63665617       0.49563728 </v>
   <v>       0.76885082       0.23283650       0.21335646 </v>
   <v>       0.66037501       0.68391561       0.84431295 </v>
   <v>       0.01600081       0.68524459       0.83283701 </v>
   <v>       0.09630324       0.19731560       0.87611509 </v>
   <v>       0.68623581       0.66502756       0.16716419 </v>
   <v>       0.56107811       0.89869895       0.77727462 </v>
   <v>       0.99711711       0.77229381       0.89396785 </v>
   <v>       0.89810713       0.33325789       0.22924713 </v>
   <v>       0.77357801       0.99860549       0.11123618 </v>
   <v>       0.09836444       0.43128748       0.56726419 </v>
   <v>       0.33438020       0.44383980       0.77602226 </v>
   <v>       0.00201680       0.77204344       0.10543266 </v>
   <v>       0.33244125       0.89459631       0.77327012 </v>
   <v>       0.23016107       0.00002654       0.10381510 </v>
   <v>       0.22973478       0.22810984       0.10458662 </v>
   <v>       0.09830976       0.43639579       0.77396213 </v>
   <v>       0.66545227       0.11033900       0.44034206 </v>
   <v>       0.00181619       0.22653710       0.10837871 </v>
   <v>       0.89793526       0.33490829       0.43752164 </v>
   <v>       0.33725528       0.89524448       0.56400870 </v>
   <v>       0.90077480       0.56488717       0.43689885 </v>
   <v>       0.10267515       0.66582872       0.77208898 </v>
   <v>       0.33216837       0.43914418       0.56558965 </v>
   <v>       0.89792345       0.56110847       0.22599244 </v>
   <v>       0.77592834       0.77365567       0.11006306 </v>
   <v>       0.67030397       0.55648963       0.43778771 </v>
   <v>       0.44208790       0.33451258       0.43768520 </v>
   <v>       0.10824078       0.66473570       0.56252505 </v>
   <v>       0.22619985       0.00045670       0.89380204 </v>
   <v>       0.66948289       0.55838292       0.22615459 </v>
   <v>       0.55639117       0.66404582       0.77994726 </v>
   <v>       0.99756842       0.22696253       0.89770231 </v>
   <v>       0.77166214       0.77381121       0.89754643 </v>
   <v>       0.66709144       0.10451704       0.23147601 </v>
   <v>       0.22568562       0.22762904       0.89390069 </v>
   <v>       0.43983864       0.33430435       0.22864719 </v>
   <v>       0.77075905       0.00005060       0.89952246 </v>
   <v>       0.57019431       0.90603576       0.56969994 </v>
   <v>       0.43861615       0.10398323       0.22950631 </v>
   <v>       0.43455630       0.10386561       0.43843180 </v>
  </varray>
 </structure>
</modeling>
