unknown system                          
           1
    13.729572   -0.004625   -0.001411
    -6.868739   11.890915    0.001820
    -0.001511    0.001307   14.890378
   Al   C    H    O    Si
   1   1   3  72  35
Direct configuration=     1
   0.56226675  0.66695774  0.56210364
   0.39015985  0.62448741  0.48271087
   0.43554076  0.71519699  0.48270409
   0.43550588  0.57915908  0.48272071
   0.29943292  0.57910616  0.48270782
   0.01866908  0.33415778  0.83400028
   0.21409633  0.42707628  0.53524471
   0.54684068  0.09367858  0.20255533
   0.88033373  0.76060205  0.86690236
   0.45307532  0.54735605  0.79899071
   0.12054702  0.87953215  0.13137146
   0.09356834  0.54704988  0.79753904
   0.42908437  0.21450775  0.46642178
   0.76014491  0.88009731  0.13310068
   0.21378515  0.78703006  0.53379068
   0.90028721  0.09915112  0.12387986
   0.23937203  0.11999702  0.86781467
   0.86357454  0.43151607  0.45676915
   0.43242939  0.86426723  0.54370028
   0.98229452  0.31530457  0.16694177
   0.64817130  0.99953414  0.49955176
   0.00043896  0.64720847  0.49975529
   0.33298125  0.31452668  0.16704582
   0.98098642  0.66644197  0.16658376
   0.35239198  0.35174152  0.50050091
   0.68385168  0.01788778  0.16566335
   0.66669377  0.98186541  0.83352303
   0.00116992  0.35335410  0.49925248
   0.78762049  0.21296121  0.46562061
   0.33373752  0.01849548  0.16668310
   0.90604538  0.45293233  0.20052744
   0.31495955  0.33394208  0.83414386
   0.45343721  0.90696615  0.79859222
   0.07328832  0.66873069  0.66657635
   0.66878397  0.07248771  0.33291341
   0.99839898  0.73872197  0.99995682
   0.59484588  0.92882677  0.66664679
   0.92775304  0.59328347  0.33317011
   0.26044392  0.26022676  0.00041043
   0.40496547  0.33173231  0.33375974
   0.78717796  0.57370545  0.46504080
   0.73962094  0.99881333  0.99981828
   0.57346146  0.78656886  0.53553586
   0.59502641  0.66649762  0.66714202
   0.26173374  0.00093142  0.99988745
   0.07171686  0.40445488  0.66663892
   0.40502615  0.07341303  0.33357486
   0.33388493  0.40556150  0.66715660
   0.74130148  0.74157771  0.99990420
   0.54626077  0.45356368  0.20249386
   0.88005958  0.12063688  0.86801315
   0.33290645  0.92704622  0.66660571
   0.56813333  0.43345568  0.45573462
   0.66787315  0.59620520  0.33318521
   0.92707692  0.33365692  0.33309150
   0.35337550  0.00075342  0.50030064
   0.31507762  0.98219159  0.83302738
   0.90175571  0.80301538  0.12424376
   0.23451294  0.76604255  0.79065746
   0.11938162  0.23874371  0.13244245
   0.56886513  0.13557705  0.45505081
   0.23426633  0.46883248  0.78952332
   0.19789636  0.09842721  0.12373094
   0.00001922  0.26079870  0.00040007
   0.09929620  0.90094046  0.87711490
   0.80289743  0.90184265  0.87522089
   0.43312280  0.56754296  0.54387454
   0.53149813  0.76617893  0.78927568
   0.76513887  0.53069600  0.21050735
   0.13681379  0.56845723  0.54503361
   0.46898042  0.23467224  0.20963910
   0.64913284  0.64895484  0.50026552
   0.76597739  0.23394914  0.20912494
   0.66631742  0.68549264  0.83419044
   0.01850874  0.68504333  0.83354036
   0.09893653  0.19841567  0.87681325
   0.68535530  0.66617265  0.16567902
   0.56160226  0.89548670  0.77161425
   0.99963954  0.77178059  0.89479173
   0.89488496  0.33352588  0.22786143
   0.77144754  0.99942864  0.10518678
   0.10592703  0.43874517  0.56189606
   0.33357859  0.43886748  0.77206256
   0.00004570  0.77197853  0.10511512
   0.33358113  0.89516793  0.77182313
   0.22843925  0.99974974  0.10499738
   0.22769218  0.22754836  0.10550695
   0.10497779  0.43863490  0.77151563
   0.66790209  0.10513258  0.43790817
   0.00006699  0.22803651  0.10547304
   0.89486199  0.33327201  0.43832718
   0.33354587  0.89477868  0.56149855
   0.89471565  0.56103274  0.43828992
   0.10537040  0.66709381  0.77164668
   0.33375432  0.43838063  0.56208668
   0.89452606  0.56088599  0.22808763
   0.77256536  0.77270690  0.10534218
   0.66765425  0.56266940  0.43814029
   0.43903444  0.33331600  0.43871159
   0.10601279  0.66735158  0.56164940
   0.22845574  0.00058940  0.89487405
   0.66657228  0.56165633  0.22836123
   0.56149853  0.66686609  0.77198996
   0.99987949  0.22851408  0.89520799
   0.77276445  0.77281234  0.89450369
   0.66676104  0.10493668  0.22800227
   0.22801816  0.22811264  0.89521057
   0.43835039  0.33325187  0.22863568
   0.77236684  0.00040877  0.89457899
   0.56181870  0.89478902  0.56175798
   0.43865925  0.10549905  0.22850692
   0.43951841  0.10602589  0.43844766
Direct configuration=     2
   0.58645889  0.68316253  0.56894419
   0.37222124  0.63709334  0.46699157
   0.43434200  0.71314014  0.48489479
   0.44329700  0.57781263  0.43465334
   0.30057133  0.58005150  0.48316897
   0.01894735  0.33453188  0.83368685
   0.21610879  0.42602813  0.53602998
   0.54669298  0.09368779  0.20254227
   0.88085412  0.76065580  0.86698994
   0.45042175  0.54489507  0.79929216
   0.12071635  0.87966814  0.13140265
   0.09361204  0.54666335  0.79738078
   0.42856066  0.21510256  0.46665157
   0.76019490  0.88027326  0.13313074
   0.21355524  0.78653716  0.53369441
   0.90053646  0.09937830  0.12387685
   0.23944426  0.12025745  0.86774576
   0.86392696  0.43115592  0.45686993
   0.43098105  0.86454043  0.54350983
   0.98239890  0.31538043  0.16696714
   0.64854801  0.00127871  0.49895403
   0.00120743  0.64727654  0.50002297
   0.33293437  0.31450199  0.16712183
   0.98108887  0.66644399  0.16657600
   0.35226689  0.35559909  0.50209595
   0.68382272  0.01796996  0.16570846
   0.66700437  0.98222393  0.83380020
   0.00267193  0.35391512  0.49974438
   0.78822296  0.21357060  0.46562517
   0.33377285  0.01853021  0.16672629
   0.90613002  0.45279109  0.20054262
   0.31495676  0.33412658  0.83348414
   0.45279336  0.90703061  0.79868373
   0.07339209  0.66844403  0.66624145
   0.66876706  0.07263761  0.33277147
   0.99852669  0.73870745  0.99998071
   0.59456009  0.92955560  0.66738528
   0.92803404  0.59328162  0.33311803
   0.26049863  0.26031351  0.00027047
   0.40447539  0.33164672  0.33461127
   0.78851299  0.57298940  0.46475554
   0.73967687  0.99896432  0.99997521
   0.57625864  0.80377152  0.53505246
   0.59409196  0.66415654  0.67986183
   0.26178625  0.00101119  0.99989257
   0.07228008  0.40456268  0.66573717
   0.40494109  0.07345300  0.33373767
   0.33494221  0.40710612  0.66353135
   0.74140481  0.74161768  0.00023500
   0.54571582  0.45299421  0.20244784
   0.88051518  0.12113683  0.86800767
   0.33274922  0.92702458  0.66638858
   0.56553759  0.43089082  0.45581592
   0.66777416  0.59547348  0.33187925
   0.92734783  0.33373698  0.33333727
   0.35322600  0.00084392  0.50024937
   0.31502355  0.98228146  0.83304298
   0.90199301  0.80307672  0.12425086
   0.23427198  0.76574418  0.79056799
   0.11948569  0.23881805  0.13246597
   0.56844974  0.13580978  0.45500431
   0.23433593  0.46864044  0.78895642
   0.19790924  0.09853298  0.12372238
   0.00015220  0.26093934  0.00032496
   0.09950058  0.90111882  0.87711931
   0.80314553  0.90225157  0.87538548
   0.41967239  0.54806681  0.58930042
   0.53092653  0.76687498  0.79002682
   0.76535691  0.53056590  0.21036950
   0.13730310  0.56739509  0.54484823
   0.46891858  0.23471859  0.20975314
   0.65490913  0.64191312  0.49171141
   0.76608923  0.23410019  0.20915482
   0.66713431  0.68588373  0.83555776
   0.01867470  0.68486090  0.83338560
   0.09913885  0.19855528  0.87672737
   0.68537899  0.66618225  0.16557315
   0.56197373  0.89469403  0.77092286
   0.99909931  0.77176318  0.89480121
   0.89470247  0.33353204  0.22766875
   0.77123927  0.99910540  0.10507355
   0.10161492  0.43768661  0.56295005
   0.33535362  0.44083202  0.77527634
  -0.00024266  0.77187972  0.10509815
   0.33425668  0.89536176  0.77198818
   0.22832945  0.99955846  0.10496459
   0.22765102  0.22748094  0.10555027
   0.10448922  0.43866231  0.77245492
   0.66769332  0.10406393  0.43837496
  -0.00017520  0.22783288  0.10551760
   0.89354238  0.33290401  0.43786456
   0.33416212  0.89520478  0.56178160
   0.89334955  0.56115889  0.43821259
   0.10533302  0.66758308  0.77199145
   0.31936385  0.41761715  0.56783908
   0.89427183  0.56101270  0.22813705
   0.77233034  0.77250881  0.10519021
   0.66899197  0.56820572  0.44038699
   0.44254572  0.33293693  0.43663060
   0.10520542  0.66852174  0.56180900
   0.22833471  0.00028404  0.89490403
   0.66682346  0.56227321  0.22906383
   0.56460320  0.66811938  0.76765608
   0.99930696  0.22790890  0.89541518
   0.77171575  0.77215658  0.89387959
   0.66680089  0.10472069  0.22811103
   0.22769563  0.22759773  0.89555548
   0.43888450  0.33370540  0.22802202
   0.77182230 -0.00028619  0.89429844
   0.56503580  0.89248035  0.56184093
   0.43876826  0.10539295  0.22834568
   0.43992918  0.10557605  0.43831737
Direct configuration=     3
   0.57111892  0.67288725  0.56460667
   0.38359591  0.62910006  0.47695900
   0.43510212  0.71444437  0.48350569
   0.43835674  0.57866640  0.46513232
   0.29984947  0.57945207  0.48287656
   0.01877090  0.33429467  0.83388559
   0.21483271  0.42669275  0.53553205
   0.54678664  0.09368195  0.20255055
   0.88052415  0.76062172  0.86693441
   0.45210435  0.54645555  0.79910101
   0.12060898  0.87958191  0.13138287
   0.09358433  0.54690845  0.79748113
   0.42889274  0.21472540  0.46650586
   0.76016320  0.88016169  0.13311168
   0.21370102  0.78684970  0.53375546
   0.90037842  0.09923425  0.12387876
   0.23939846  0.12009232  0.86778946
   0.86370349  0.43138429  0.45680603
   0.43189943  0.86436720  0.54363059
   0.98233271  0.31533233  0.16695105
   0.64830914  0.00017250  0.49933304
   0.00072015  0.64723338  0.49985324
   0.33296410  0.31451765  0.16707364
   0.98102391  0.66644271  0.16658092
   0.35234621  0.35315305  0.50108456
   0.68384108  0.01791785  0.16567986
   0.66680743  0.98199659  0.83362445
   0.00171952  0.35355938  0.49943248
   0.78784094  0.21318419  0.46562228
   0.33375045  0.01850819  0.16669890
   0.90607635  0.45288065  0.20053299
   0.31495853  0.33400959  0.83390246
   0.45320162  0.90698974  0.79862570
   0.07332629  0.66862580  0.66645381
   0.66877778  0.07254256  0.33286147
   0.99844571  0.73871666  0.99996556
   0.59474131  0.92909346  0.66691701
   0.92785586  0.59328279  0.33315106
   0.26046394  0.26025850  0.00035921
   0.40478614  0.33170099  0.33407132
   0.78766646  0.57344344  0.46493642
   0.73964141  0.99886858  0.99987570
   0.57448498  0.79286351  0.53535898
   0.59468448  0.66564099  0.67179634
   0.26175296  0.00096061  0.99988933
   0.07192295  0.40449432  0.66630896
   0.40499503  0.07342766  0.33363444
   0.33427180  0.40612670  0.66583008
   0.74133929  0.74159233  0.00002524
   0.54606137  0.45335530  0.20247702
   0.88022629  0.12081982  0.86801115
   0.33284892  0.92703830  0.66652626
   0.56718352  0.43251717  0.45576437
   0.66783693  0.59593746  0.33270735
   0.92717605  0.33368622  0.33318143
   0.35332080  0.00078654  0.50028188
   0.31505784  0.98222447  0.83303309
   0.90184254  0.80303783  0.12424636
   0.23442477  0.76593337  0.79062472
   0.11941970  0.23877091  0.13245106
   0.56871314  0.13566221  0.45503379
   0.23429179  0.46876221  0.78931589
   0.19790107  0.09846591  0.12372781
   0.00006788  0.26085016  0.00037259
   0.09937099  0.90100572  0.87711651
   0.80298822  0.90199228  0.87528111
   0.42820115  0.56041642  0.56049637
   0.53128898  0.76643362  0.78955053
   0.76521866  0.53064840  0.21045691
   0.13699283  0.56806858  0.54496578
   0.46895779  0.23468920  0.20968083
   0.65124645  0.64637820  0.49713547
   0.76601831  0.23400441  0.20913587
   0.66661633  0.68563574  0.83469076
   0.01856947  0.68497658  0.83348373
   0.09901056  0.19846676  0.87678183
   0.68536397  0.66617616  0.16564028
   0.56173819  0.89519665  0.77136126
   0.99944186  0.77177422  0.89479520
   0.89481819  0.33352814  0.22779093
   0.77137133  0.99931036  0.10514535
   0.10434918  0.43835783  0.56228173
   0.33422809  0.43958633  0.77323851
  -0.00005981  0.77194237  0.10510891
   0.33382832  0.89523886  0.77188353
   0.22839907  0.99967974  0.10498538
   0.22767712  0.22752369  0.10552280
   0.10479902  0.43864493  0.77185933
   0.66782570  0.10474155  0.43807898
  -0.00002163  0.22796200  0.10548935
   0.89437913  0.33313735  0.43815791
   0.33377136  0.89493460  0.56160212
   0.89421578  0.56107890  0.43826163
   0.10535672  0.66727284  0.77177284
   0.32848868  0.43078304  0.56419155
   0.89443304  0.56093236  0.22810571
   0.77247937  0.77263442  0.10528657
   0.66814373  0.56469520  0.43896239
   0.44031925  0.33317729  0.43795013
   0.10571736  0.66777976  0.56170780
   0.22841145  0.00047766  0.89488502
   0.66666419  0.56188205  0.22861832
   0.56263456  0.66732468  0.77040415
   0.99967000  0.22829264  0.89528380
   0.77238072  0.77257239  0.89427532
   0.66677562  0.10485765  0.22804206
   0.22790014  0.22792423  0.89533678
   0.43854583  0.33341782  0.22841114
   0.77216759  0.00015447  0.89447634
   0.56299587  0.89394425  0.56178833
   0.43869914  0.10546023  0.22844792
   0.43966871  0.10586129  0.43839998
Direct configuration=     4
   0.57919686  0.67815376  0.56664146
   0.39319243  0.62179835  0.46886983
   0.43722872  0.72099638  0.48523065
   0.43320852  0.58479948  0.44467190
   0.28869957  0.57448018  0.48307905
   0.01851261  0.33386756  0.83405238
   0.20970304  0.42521514  0.53544223
   0.54692527  0.09365348  0.20253524
   0.88037141  0.76069244  0.86697974
   0.45383357  0.54834049  0.79955770
   0.12052461  0.87945786  0.13142653
   0.09351876  0.54728293  0.79735028
   0.42840527  0.21353780  0.46665431
   0.76018077  0.88011139  0.13322100
   0.21395554  0.78682383  0.53362018
   0.90023880  0.09907971  0.12389932
   0.23943187  0.11987520  0.86778400
   0.86404579  0.43176412  0.45690165
   0.43295685  0.86460939  0.54354388
   0.98241225  0.31541216  0.16700065
   0.64820680  0.00068663  0.49962936
   0.00039423  0.64686265  0.49950391
   0.33289668  0.31452269  0.16712697
   0.98111760  0.66643853  0.16659804
   0.35448278  0.35131745  0.49782197
   0.68383326  0.01787818  0.16568911
   0.66663955  0.98210263  0.83355321
   0.00072220  0.35286737  0.49857067
   0.78758651  0.21290907  0.46562205
   0.33373156  0.01848041  0.16670938
   0.90616730  0.45302919  0.20056577
   0.31436234  0.33293403  0.83419780
   0.45366057  0.90708979  0.79864737
   0.07331815  0.66836694  0.66657945
   0.66874526  0.07259731  0.33293626
   0.99856215  0.73870106  0.99996571
   0.59468731  0.92983552  0.66683555
   0.92813533  0.59331309  0.33320215
   0.26051656  0.26032939  0.00056278
   0.40430950  0.33161494  0.33329893
   0.78727544  0.57286536  0.46476032
   0.73969621  0.99899460  0.99986909
   0.57740181  0.79264227  0.53310902
   0.59843555  0.66524538  0.67435545
   0.26180469  0.00101277  0.99995575
   0.07200446  0.40442934  0.66710466
   0.40492912  0.07340426  0.33350396
   0.33318272  0.40333470  0.67301572
   0.74151307  0.74170311  0.00003603
   0.54640948  0.45373658  0.20239914
   0.87987876  0.12051879  0.86800974
   0.33264591  0.92701124  0.66662856
   0.56885157  0.43416474  0.45561420
   0.66778840  0.59542742  0.33282301
   0.92741518  0.33375171  0.33308697
   0.35310076  0.00075878  0.50025219
   0.31503050  0.98222267  0.83299516
   0.90177715  0.80309749  0.12429700
   0.23444821  0.76596161  0.79052084
   0.11939921  0.23884855  0.13248438
   0.56908666  0.13586163  0.45495388
   0.23363067  0.46854777  0.78896882
   0.19791426  0.09841484  0.12372967
   0.00016541  0.26098135  0.00047844
   0.09925087  0.90085539  0.87712673
   0.80326438  0.90204073  0.87539674
   0.42594159  0.56374717  0.57363969
   0.53100163  0.76595716  0.79006838
   0.76506370  0.53056204  0.21032121
   0.13748135  0.56872031  0.54474533
   0.46892224  0.23460990  0.20977384
   0.65286983  0.64953074  0.49697772
   0.76589542  0.23390538  0.20917602
   0.66619509  0.68538868  0.83545606
   0.01842066  0.68501431  0.83360393
   0.09887954  0.19853009  0.87677440
   0.68530142  0.66612371  0.16562712
   0.56152827  0.89501455  0.77173557
   0.99949719  0.77182836  0.89483161
   0.89484081  0.33353171  0.22780829
   0.77143857  0.99935610  0.10503028
   0.10422381  0.43732595  0.56275707
   0.33412238  0.43916246  0.77197557
  -0.00004612  0.77194326  0.10506864
   0.33389128  0.89530618  0.77189867
   0.22840710  0.99972109  0.10491693
   0.22770971  0.22754854  0.10540985
   0.10526088  0.43866015  0.77181321
   0.66786615  0.10523207  0.43809538
   0.00002698  0.22800527  0.10542266
   0.89454568  0.33318711  0.43821369
   0.33367732  0.89545054  0.56181699
   0.89439975  0.56088129  0.43813447
   0.10546885  0.66719898  0.77185432
   0.32168745  0.42163132  0.56667101
   0.89437251  0.56091188  0.22806970
   0.77251952  0.77262813  0.10512506
   0.66975700  0.55892693  0.43483115
   0.43956959  0.33323911  0.43862416
   0.10564186  0.66787093  0.56187773
   0.22849429  0.00060961  0.89481584
   0.66668557  0.56165277  0.22837783
   0.56091380  0.66683481  0.77621373
   0.99981441  0.22836528  0.89522893
   0.77225653  0.77247244  0.89432259
   0.66679494  0.10497510  0.22800373
   0.22815847  0.22826172  0.89507300
   0.43839636  0.33330990  0.22860496
   0.77216430  0.00018410  0.89441717
   0.56365358  0.90332425  0.56412657
   0.43863458  0.10550046  0.22848530
   0.43958525  0.10615697  0.43856673
Direct configuration=     5
   0.57552482  0.67575973  0.56571649
   0.38883008  0.62511753  0.47254697
   0.43626202  0.71801799  0.48444653
   0.43554877  0.58201153  0.45397272
   0.29376805  0.57674028  0.48298700
   0.01863002  0.33406171  0.83397656
   0.21203487  0.42588683  0.53548306
   0.54686225  0.09366642  0.20254220
   0.88044084  0.76066029  0.86695913
   0.45304751  0.54748364  0.79935010
   0.12056296  0.87951425  0.13140668
   0.09354857  0.54711270  0.79740976
   0.42862686  0.21407765  0.46658683
   0.76017278  0.88013426  0.13317131
   0.21383984  0.78683559  0.53368167
   0.90030227  0.09914996  0.12388997
   0.23941668  0.11997389  0.86778648
   0.86389019  0.43159146  0.45685818
   0.43247617  0.86449929  0.54358330
   0.98237610  0.31537587  0.16697810
   0.64825333  0.00045292  0.49949466
   0.00054239  0.64703118  0.49966271
   0.33292733  0.31452040  0.16710273
   0.98107501  0.66644043  0.16659026
   0.35351155  0.35215187  0.49930506
   0.68383681  0.01789621  0.16568490
   0.66671586  0.98205443  0.83358559
   0.00117556  0.35318194  0.49896243
   0.78770217  0.21303413  0.46562216
   0.33374015  0.01849304  0.16670462
   0.90612595  0.45296167  0.20055087
   0.31463335  0.33342295  0.83406355
   0.45345194  0.90704431  0.79863752
   0.07332185  0.66848461  0.66652234
   0.66876004  0.07257242  0.33290226
   0.99850922  0.73870815  0.99996564
   0.59471186  0.92949820  0.66687258
   0.92800829  0.59329932  0.33317892
   0.26049264  0.26029717  0.00047024
   0.40452617  0.33165406  0.33365004
   0.78745319  0.57312814  0.46484037
   0.73967130  0.99893732  0.99987209
   0.57607589  0.79274284  0.53413180
   0.59673040  0.66542522  0.67319214
   0.26178117  0.00098906  0.99992556
   0.07196741  0.40445888  0.66674295
   0.40495908  0.07341489  0.33356327
   0.33367779  0.40460387  0.66974930
   0.74143407  0.74165276  0.00003112
   0.54625124  0.45356326  0.20243454
   0.88003674  0.12065563  0.86801038
   0.33273819  0.92702354  0.66658206
   0.56809331  0.43341579  0.45568246
   0.66781046  0.59565927  0.33277043
   0.92730648  0.33372194  0.33312991
   0.35320078  0.00077140  0.50026569
   0.31504292  0.98222349  0.83301240
   0.90180687  0.80307037  0.12427398
   0.23443755  0.76594877  0.79056806
   0.11940852  0.23881326  0.13246923
   0.56891686  0.13577098  0.45499021
   0.23393120  0.46864525  0.78912659
   0.19790826  0.09843805  0.12372882
   0.00012107  0.26092171  0.00043032
   0.09930547  0.90092373  0.87712209
   0.80313884  0.90201871  0.87534418
   0.42696873  0.56223309  0.56766506
   0.53113225  0.76617375  0.78983298
   0.76513414  0.53060130  0.21038289
   0.13725928  0.56842405  0.54484554
   0.46893840  0.23464595  0.20973156
   0.65213188  0.64809767  0.49704943
   0.76595128  0.23395039  0.20915777
   0.66638658  0.68550099  0.83510817
   0.01848830  0.68499716  0.83354929
   0.09893910  0.19850130  0.87677778
   0.68532986  0.66614756  0.16563310
   0.56162369  0.89509733  0.77156542
   0.99947204  0.77180375  0.89481506
   0.89483053  0.33353009  0.22780040
   0.77140801  0.99933531  0.10508259
   0.10428080  0.43779502  0.56254099
   0.33417044  0.43935514  0.77254967
  -0.00005235  0.77194286  0.10508694
   0.33386266  0.89527557  0.77189179
   0.22840345  0.99970230  0.10494805
   0.22769490  0.22753724  0.10546120
   0.10505093  0.43865323  0.77183417
   0.66784776  0.10500909  0.43808792
   0.00000488  0.22798560  0.10545298
   0.89446997  0.33316449  0.43818833
   0.33372007  0.89521601  0.56171931
   0.89431612  0.56097112  0.43819227
   0.10541788  0.66723256  0.77181728
   0.32477913  0.42579147  0.56554391
   0.89440002  0.56092119  0.22808607
   0.77250126  0.77263099  0.10519848
   0.66902365  0.56154905  0.43670911
   0.43991037  0.33321101  0.43831776
   0.10567618  0.66782948  0.56180048
   0.22845663  0.00054963  0.89484729
   0.66667585  0.56175699  0.22848715
   0.56169602  0.66705749  0.77357283
   0.99974876  0.22833226  0.89525387
   0.77231298  0.77251788  0.89430110
   0.66678616  0.10492171  0.22802115
   0.22804104  0.22810830  0.89519291
   0.43846431  0.33335896  0.22851685
   0.77216580  0.00017063  0.89444406
   0.56335460  0.89906033  0.56306366
   0.43866393  0.10548217  0.22846831
   0.43962319  0.10602256  0.43849093
Direct configuration=     6
   0.57710675  0.67658222  0.56788193
   0.39022740  0.61771842  0.47369938
   0.43481808  0.71643626  0.48406820
   0.43147890  0.58652583  0.43897974
   0.29527074  0.57814491  0.48072901
   0.01849872  0.33395472  0.83397107
   0.20922992  0.42271242  0.53551610
   0.54681161  0.09365287  0.20254476
   0.88033632  0.76073355  0.86703130
   0.45180010  0.54653988  0.80047509
   0.12056277  0.87947360  0.13144566
   0.09345503  0.54702896  0.79729702
   0.42827175  0.21390688  0.46672152
   0.76017859  0.88008744  0.13324914
   0.21434597  0.78707237  0.53360924
   0.90029493  0.09914120  0.12390885
   0.23941697  0.11988669  0.86779842
   0.86411828  0.43171521  0.45694327
   0.43225901  0.86510689  0.54358698
   0.98243172  0.31543470  0.16702460
   0.64941806  0.00304300  0.49911178
   0.00039647  0.64683181  0.49945690
   0.33291709  0.31455243  0.16717514
   0.98110772  0.66640299  0.16663338
   0.35267100  0.35104655  0.49857892
   0.68385296  0.01788478  0.16569748
   0.66653299  0.98212089  0.83345876
   0.00073021  0.35281787  0.49863954
   0.78761054  0.21297450  0.46563412
   0.33372802  0.01847397  0.16671702
   0.90618011  0.45305543  0.20059776
   0.31451930  0.33329517  0.83418583
   0.45361182  0.90717523  0.79859005
   0.07327524  0.66829349  0.66666362
   0.66870891  0.07262713  0.33311640
   0.99861985  0.73868716  0.00000285
   0.59511397  0.93116422  0.66880873
   0.92819929  0.59330842  0.33310559
   0.26050016  0.26030470  0.00049075
   0.40426615  0.33162353  0.33373955
   0.78867133  0.57233829  0.46471500
   0.73967817  0.99904018  0.99975327
   0.57836332  0.79908730  0.53356218
   0.60083876  0.66579174  0.67756727
   0.26184462  0.00102263  0.99987541
   0.07172919  0.40419069  0.66725839
   0.40494599  0.07341580  0.33369661
   0.33109055  0.39901331  0.67180150
   0.74159545  0.74175345  0.00006155
   0.54624987  0.45358437  0.20238404
   0.87988397  0.12056455  0.86801932
   0.33264099  0.92711129  0.66672428
   0.56763490  0.43222615  0.45532185
   0.66786777  0.59513748  0.33151281
   0.92745956  0.33377342  0.33305866
   0.35307011  0.00083937  0.50022957
   0.31511941  0.98218110  0.83290174
   0.90180972  0.80309581  0.12433073
   0.23470023  0.76623029  0.79045324
   0.11943843  0.23888213  0.13252365
   0.56891723  0.13595506  0.45497707
   0.23401922  0.46853906  0.78893991
   0.19792236  0.09842193  0.12375102
   0.00019068  0.26102731  0.00044536
   0.09937623  0.90093840  0.87713774
   0.80334121  0.90209204  0.87546653
   0.42242261  0.56602078  0.57028936
   0.53070377  0.76694707  0.79068682
   0.76510150  0.53048231  0.21027503
   0.13752312  0.56837320  0.54474010
   0.46895178  0.23468358  0.20982389
   0.65522813  0.64690947  0.49332176
   0.76596585  0.23401843  0.20920666
   0.66684955  0.68546670  0.83712282
   0.01844953  0.68501986  0.83359150
   0.09891250  0.19848646  0.87679772
   0.68527602  0.66606288  0.16567330
   0.56151500  0.89466455  0.77215136
   0.99936867  0.77178782  0.89481909
   0.89486485  0.33352248  0.22779336
   0.77140449  0.99928566  0.10506671
   0.10217684  0.43738558  0.56304027
   0.33471133  0.44031068  0.77494741
  -0.00006761  0.77195978  0.10504423
   0.33381626  0.89516990  0.77211189
   0.22834720  0.99967357  0.10494872
   0.22764410  0.22752247  0.10540206
   0.10510250  0.43875741  0.77223802
   0.66816406  0.10586128  0.43758293
   0.00000275  0.22796005  0.10543536
   0.89432488  0.33313485  0.43799476
   0.33346207  0.89515913  0.56169019
   0.89489857  0.56084196  0.43805478
   0.10532485  0.66719627  0.77192669
   0.32565177  0.42669241  0.56813664
   0.89450259  0.56098154  0.22801840
   0.77254836  0.77270857  0.10515723
   0.66890871  0.56209749  0.43714714
   0.44141062  0.33306682  0.43744574
   0.10563166  0.66764024  0.56182116
   0.22835873  0.00055668  0.89490468
   0.66675931  0.56172929  0.22789845
   0.56145652  0.66689216  0.77510144
   0.99971160  0.22822612  0.89529652
   0.77247226  0.77255618  0.89446996
   0.66680410  0.10487131  0.22797306
   0.22804055  0.22810999  0.89523897
   0.43846431  0.33334272  0.22829240
   0.77221690  0.00012748  0.89446845
   0.56390159  0.89862141  0.56273872
   0.43868150  0.10543595  0.22839929
   0.43961073  0.10584840  0.43829675
Direct configuration=     7
   0.57689849  0.67647394  0.56759685
   0.39004345  0.61869251  0.47354767
   0.43500817  0.71664449  0.48411801
   0.43201470  0.58593152  0.44095357
   0.29507291  0.57795999  0.48102627
   0.01851601  0.33396880  0.83397179
   0.20959919  0.42313033  0.53551175
   0.54681828  0.09365465  0.20254443
   0.88035008  0.76072390  0.86702180
   0.45196432  0.54666412  0.80032699
   0.12056280  0.87947895  0.13144053
   0.09346735  0.54703998  0.79731187
   0.42831850  0.21392936  0.46670378
   0.76017783  0.88009360  0.13323889
   0.21427934  0.78704120  0.53361877
   0.90029590  0.09914235  0.12390637
   0.23941694  0.11989817  0.86779685
   0.86408825  0.43169891  0.45693207
   0.43228760  0.86502690  0.54358650
   0.98242440  0.31542695  0.16701848
   0.64926473  0.00270202  0.49916219
   0.00041568  0.64685806  0.49948400
   0.33291844  0.31454821  0.16716561
   0.98110342  0.66640792  0.16662770
   0.35278166  0.35119207  0.49867451
   0.68385083  0.01788628  0.16569582
   0.66655706  0.98211214  0.83347546
   0.00078884  0.35286580  0.49868205
   0.78762260  0.21298235  0.46563255
   0.33372962  0.01847648  0.16671539
   0.90617298  0.45304309  0.20059159
   0.31453431  0.33331200  0.83416973
   0.45359077  0.90715799  0.79859630
   0.07328137  0.66831865  0.66664502
   0.66871564  0.07261993  0.33308821
   0.99860528  0.73868993 -0.00000205
   0.59506103  0.93094489  0.66855384
   0.92817415  0.59330722  0.33311524
   0.26049917  0.26030371  0.00048805
   0.40430038  0.33162755  0.33372777
   0.78851097  0.57244227  0.46473150
   0.73967727  0.99902664  0.99976891
   0.57806218  0.79825205  0.53363717
   0.60029789  0.66574349  0.67699128
   0.26183627  0.00101821  0.99988201
   0.07176055  0.40422600  0.66719053
   0.40494771  0.07341568  0.33367906
   0.33143116  0.39974931  0.67153133
   0.74157420  0.74174019  0.00005755
   0.54625005  0.45358159  0.20239069
   0.87990408  0.12057654  0.86801814
   0.33265378  0.92709974  0.66670555
   0.56769525  0.43238277  0.45536932
   0.66786022  0.59520617  0.33167838
   0.92743941  0.33376664  0.33306804
   0.35308731  0.00083042  0.50023433
   0.31510934  0.98218668  0.83291631
   0.90180935  0.80309246  0.12432326
   0.23466565  0.76619323  0.79046836
   0.11943449  0.23887306  0.13251649
   0.56891718  0.13593082  0.45497880
   0.23400763  0.46855304  0.78896448
   0.19792051  0.09842406  0.12374809
   0.00018151  0.26101341  0.00044338
   0.09936691  0.90093646  0.87713568
   0.80331457  0.90208239  0.87545043
   0.42302110  0.56552213  0.56994387
   0.53076018  0.76684526  0.79057441
   0.76510580  0.53049798  0.21028923
   0.13748838  0.56837989  0.54475398
   0.46895002  0.23467863  0.20981173
   0.65482051  0.64706590  0.49381251
   0.76596393  0.23400947  0.20920022
   0.66678860  0.68547121  0.83685759
   0.01845464  0.68501687  0.83358594
   0.09891600  0.19848841  0.87679509
   0.68528311  0.66607403  0.16566801
   0.56152931  0.89472153  0.77207422
   0.99938228  0.77178992  0.89481856
   0.89486033  0.33352348  0.22779429
   0.77140495  0.99929220  0.10506880
   0.10245383  0.43743949  0.56297454
   0.33464012  0.44018488  0.77463175
  -0.00006560  0.77195755  0.10504985
   0.33382237  0.89518381  0.77208291
   0.22835461  0.99967735  0.10494863
   0.22765079  0.22752442  0.10540985
   0.10509571  0.43874370  0.77218485
   0.66812242  0.10574909  0.43764941
   0.00000303  0.22796341  0.10543768
   0.89434398  0.33313875  0.43802024
   0.33349603  0.89516662  0.56169402
   0.89482189  0.56085897  0.43807288
   0.10533709  0.66720104  0.77191229
   0.32553689  0.42657380  0.56779531
   0.89448908  0.56097359  0.22802731
   0.77254216  0.77269835  0.10516266
   0.66892384  0.56202529  0.43708947
   0.44121311  0.33308581  0.43756054
   0.10563752  0.66766516  0.56181844
   0.22837162  0.00055576  0.89489713
   0.66674833  0.56173294  0.22797595
   0.56148805  0.66691392  0.77490020
   0.99971649  0.22824010  0.89529091
   0.77245129  0.77255114  0.89444773
   0.66680174  0.10487794  0.22797939