 running on   48 total cores
 distrk:  each k-point on   48 cores,    1 groups
 distr:  one band on    8 cores,    6 groups
 using from now: INCAR     
 vasp.5.4.1 05Feb16 (build Feb 08 2018 09:21:51) complex                        
  
 POSCAR found :  2 types and       3 ions

 ----------------------------------------------------------------------------- 
|                                                                             |
|  ADVICE TO THIS USER RUNNING 'VASP/VAMP'   (HEAR YOUR MASTER'S VOICE ...):  |
|                                                                             |
|      You have a (more or less) 'small supercell' and for smaller cells      |
|      it is recommended  to use the reciprocal-space projection scheme!      |
|      The real space optimization is not  efficient for small cells and it   |
|      is also less accurate ...                                              |
|      Therefore set LREAL=.FALSE. in the  INCAR file                         |
|                                                                             |
 ----------------------------------------------------------------------------- 

 LDA part: xc-table for Pade appr. of Perdew
 POSCAR, INCAR and KPOINTS ok, starting setup
 WARNING: small aliasing (wrap around) errors must be expected
 FFT: planning ...
 WAVECAR not read
 entering main loop
       N       E                     dE             d eps       ncg     rms          rms(c)
DAV:   1     0.279701155251E+02    0.27970E+02   -0.98303E+02    84   0.148E+02
DAV:   2     0.419988237246E+01   -0.23770E+02   -0.17024E+02    84   0.396E+01
DAV:   3     0.888449212859E+00   -0.33114E+01   -0.33114E+01    60   0.161E+01
DAV:   4     0.830571617479E+00   -0.57878E-01   -0.57878E-01    72   0.324E+00
DAV:   5     0.829808099712E+00   -0.76352E-03   -0.76352E-03    60   0.235E-01    0.104E+01
DAV:   6    -0.966826554127E+01   -0.10498E+02   -0.43200E+01    48   0.141E+01    0.504E+00
DAV:   7    -0.112031282350E+02   -0.15349E+01   -0.21281E+00    72   0.644E+00    0.271E+00
DAV:   8    -0.115806026670E+02   -0.37747E+00   -0.37698E-01    60   0.269E+00    0.140E+00
DAV:   9    -0.118505147781E+02   -0.26991E+00   -0.19829E-01    48   0.185E+00    0.383E-01
DAV:  10    -0.119177478229E+02   -0.67233E-01   -0.14845E-02    72   0.595E-01    0.195E-01
DAV:  11    -0.119643489205E+02   -0.46601E-01   -0.94774E-04    48   0.146E-01    0.114E-01
DAV:  12    -0.120427183521E+02   -0.78369E-01   -0.17441E-03    60   0.175E-01    0.462E-02
DAV:  13    -0.120709848864E+02   -0.28267E-01   -0.62346E-04    60   0.865E-02    0.313E-02
DAV:  14    -0.120897409232E+02   -0.18756E-01   -0.44931E-04    84   0.717E-02    0.199E-02
DAV:  15    -0.120938853307E+02   -0.41444E-02   -0.27239E-04    72   0.566E-02    0.131E-02
DAV:  16    -0.120947170549E+02   -0.83172E-03   -0.13078E-04    72   0.369E-02    0.908E-03
DAV:  17    -0.120961950147E+02   -0.14780E-02   -0.11347E-04    48   0.299E-02    0.614E-03
DAV:  18    -0.120976982202E+02   -0.15032E-02   -0.73436E-05    72   0.229E-02    0.426E-03
DAV:  19    -0.120984618169E+02   -0.76360E-03   -0.20734E-05    72   0.129E-02    0.269E-03
DAV:  20    -0.120988707144E+02   -0.40890E-03   -0.14960E-05    84   0.106E-02    0.142E-03
DAV:  21    -0.120989542637E+02   -0.83549E-04   -0.46964E-06    72   0.609E-03
   1 F= -.12112725E+02 E0= -.12112725E+02  d E =-.144810E-11  mag=     2.0000
Running "mpirun -np 48 vasp"
