   3   3   1   0
  0.1365333E+04  0.1600000E-08  0.1600000E-08  0.1600000E-08  0.5000000E-15
  1.000000000000000E-004
  CAR 
 unknown system                          
      1.79508435    -17.55323233  301     -5.67014117      1.00000000
    -17.553  0.0000E+00  0.0000E+00  0.0000E+00  0.0000E+00
    -17.489  0.0000E+00  0.0000E+00  0.0000E+00  0.0000E+00
    -17.424  0.0000E+00  0.0000E+00  0.0000E+00  0.0000E+00
    -17.360  0.0000E+00  0.0000E+00  0.0000E+00  0.0000E+00
    -17.295  0.0000E+00  0.0000E+00  0.0000E+00  0.0000E+00
    -17.231  0.0000E+00  0.0000E+00  0.0000E+00  0.0000E+00
    -17.166  0.0000E+00  0.0000E+00  0.0000E+00  0.0000E+00
    -17.102  0.0000E+00  0.0000E+00  0.0000E+00  0.0000E+00
    -17.037  0.0000E+00  0.0000E+00  0.0000E+00  0.0000E+00
    -16.973  0.0000E+00  0.0000E+00  0.0000E+00  0.0000E+00
    -16.908  0.0000E+00  0.0000E+00  0.0000E+00  0.0000E+00
    -16.844  0.0000E+00  0.0000E+00  0.0000E+00  0.0000E+00
    -16.779  0.0000E+00  0.0000E+00  0.0000E+00  0.0000E+00
    -16.715  0.5014E-07  0.0000E+00  0.3234E-08  0.0000E+00
    -16.650  0.1550E+02  0.0000E+00  0.9995E+00  0.0000E+00
    -16.586  0.0000E+00  0.0000E+00  0.1000E+01  0.0000E+00
    -16.521  0.0000E+00  0.0000E+00  0.1000E+01  0.0000E+00
    -16.457  0.0000E+00  0.0000E+00  0.1000E+01  0.0000E+00
    -16.392  0.0000E+00  0.0000E+00  0.1000E+01  0.0000E+00
    -16.328  0.0000E+00  0.0000E+00  0.1000E+01  0.0000E+00
    -16.263  0.0000E+00  0.0000E+00  0.1000E+01  0.0000E+00
    -16.199  0.0000E+00  0.0000E+00  0.1000E+01  0.0000E+00
    -16.134  0.0000E+00  0.0000E+00  0.1000E+01  0.0000E+00
    -16.070  0.0000E+00  0.0000E+00  0.1000E+01  0.0000E+00
    -16.005  0.0000E+00  0.0000E+00  0.1000E+01  0.0000E+00
    -15.941  0.0000E+00  0.0000E+00  0.1000E+01  0.0000E+00
    -15.876  0.0000E+00  0.0000E+00  0.1000E+01  0.0000E+00
    -15.812  0.0000E+00  0.0000E+00  0.1000E+01  0.0000E+00
    -15.747  0.0000E+00  0.0000E+00  0.1000E+01  0.0000E+00
    -15.683  0.0000E+00  0.0000E+00  0.1000E+01  0.0000E+00
    -15.618  0.0000E+00  0.0000E+00  0.1000E+01  0.0000E+00
    -15.554  0.0000E+00  0.0000E+00  0.1000E+01  0.0000E+00
    -15.489  0.0000E+00  0.0000E+00  0.1000E+01  0.0000E+00
    -15.425  0.0000E+00  0.0000E+00  0.1000E+01  0.0000E+00
    -15.360  0.0000E+00  0.0000E+00  0.1000E+01  0.0000E+00
    -15.296  0.0000E+00  0.0000E+00  0.1000E+01  0.0000E+00
    -15.231  0.0000E+00  0.0000E+00  0.1000E+01  0.0000E+00
    -15.167  0.0000E+00  0.0000E+00  0.1000E+01  0.0000E+00
    -15.102  0.0000E+00  0.0000E+00  0.1000E+01  0.0000E+00
    -15.038  0.0000E+00  0.0000E+00  0.1000E+01  0.0000E+00
    -14.973  0.0000E+00  0.0000E+00  0.1000E+01  0.0000E+00
    -14.909  0.0000E+00  0.0000E+00  0.1000E+01  0.0000E+00
    -14.844  0.0000E+00  0.5276E+01  0.1000E+01  0.3403E+00
    -14.780  0.0000E+00  0.1023E+02  0.1000E+01  0.1000E+01
    -14.715  0.0000E+00  0.0000E+00  0.1000E+01  0.1000E+01
    -14.651  0.0000E+00  0.0000E+00  0.1000E+01  0.1000E+01
    -14.586  0.0000E+00  0.0000E+00  0.1000E+01  0.1000E+01
    -14.522  0.0000E+00  0.0000E+00  0.1000E+01  0.1000E+01
    -14.458  0.0000E+00  0.0000E+00  0.1000E+01  0.1000E+01
    -14.393  0.0000E+00  0.0000E+00  0.1000E+01  0.1000E+01
    -14.329  0.0000E+00  0.0000E+00  0.1000E+01  0.1000E+01
    -14.264  0.0000E+00  0.0000E+00  0.1000E+01  0.1000E+01
    -14.200  0.0000E+00  0.0000E+00  0.1000E+01  0.1000E+01
    -14.135  0.0000E+00  0.0000E+00  0.1000E+01  0.1000E+01
    -14.071  0.0000E+00  0.0000E+00  0.1000E+01  0.1000E+01
    -14.006  0.0000E+00  0.0000E+00  0.1000E+01  0.1000E+01
    -13.942  0.0000E+00  0.0000E+00  0.1000E+01  0.1000E+01
    -13.877  0.0000E+00  0.0000E+00  0.1000E+01  0.1000E+01
    -13.813  0.0000E+00  0.0000E+00  0.1000E+01  0.1000E+01
    -13.748  0.0000E+00  0.0000E+00  0.1000E+01  0.1000E+01
    -13.684  0.0000E+00  0.0000E+00  0.1000E+01  0.1000E+01
    -13.619  0.0000E+00  0.0000E+00  0.1000E+01  0.1000E+01
    -13.555  0.0000E+00  0.0000E+00  0.1000E+01  0.1000E+01
    -13.490  0.0000E+00  0.0000E+00  0.1000E+01  0.1000E+01
    -13.426  0.0000E+00  0.0000E+00  0.1000E+01  0.1000E+01
    -13.361  0.0000E+00  0.0000E+00  0.1000E+01  0.1000E+01
    -13.297  0.0000E+00  0.0000E+00  0.1000E+01  0.1000E+01
    -13.232  0.0000E+00  0.0000E+00  0.1000E+01  0.1000E+01
    -13.168  0.0000E+00  0.0000E+00  0.1000E+01  0.1000E+01
    -13.103  0.0000E+00  0.0000E+00  0.1000E+01  0.1000E+01
    -13.039  0.0000E+00  0.0000E+00  0.1000E+01  0.1000E+01
    -12.974  0.0000E+00  0.0000E+00  0.1000E+01  0.1000E+01
    -12.910  0.0000E+00  0.0000E+00  0.1000E+01  0.1000E+01
    -12.845  0.0000E+00  0.0000E+00  0.1000E+01  0.1000E+01
    -12.781  0.0000E+00  0.0000E+00  0.1000E+01  0.1000E+01
    -12.716  0.0000E+00  0.0000E+00  0.1000E+01  0.1000E+01
    -12.652  0.0000E+00  0.0000E+00  0.1000E+01  0.1000E+01
    -12.587  0.0000E+00  0.0000E+00  0.1000E+01  0.1000E+01
    -12.523  0.0000E+00  0.0000E+00  0.1000E+01  0.1000E+01
    -12.458  0.0000E+00  0.0000E+00  0.1000E+01  0.1000E+01
    -12.394  0.0000E+00  0.0000E+00  0.1000E+01  0.1000E+01
    -12.329  0.0000E+00  0.0000E+00  0.1000E+01  0.1000E+01
    -12.265  0.0000E+00  0.0000E+00  0.1000E+01  0.1000E+01
    -12.200  0.0000E+00  0.0000E+00  0.1000E+01  0.1000E+01
    -12.136  0.0000E+00  0.0000E+00  0.1000E+01  0.1000E+01
    -12.071  0.0000E+00  0.0000E+00  0.1000E+01  0.1000E+01
    -12.007  0.0000E+00  0.0000E+00  0.1000E+01  0.1000E+01
    -11.942  0.0000E+00  0.0000E+00  0.1000E+01  0.1000E+01
    -11.878  0.0000E+00  0.0000E+00  0.1000E+01  0.1000E+01
    -11.813  0.0000E+00  0.0000E+00  0.1000E+01  0.1000E+01
    -11.749  0.0000E+00  0.0000E+00  0.1000E+01  0.1000E+01
    -11.684  0.0000E+00  0.0000E+00  0.1000E+01  0.1000E+01
    -11.620  0.0000E+00  0.0000E+00  0.1000E+01  0.1000E+01
    -11.555  0.0000E+00  0.0000E+00  0.1000E+01  0.1000E+01
    -11.491  0.0000E+00  0.0000E+00  0.1000E+01  0.1000E+01
    -11.426  0.0000E+00  0.0000E+00  0.1000E+01  0.1000E+01
    -11.362  0.0000E+00  0.0000E+00  0.1000E+01  0.1000E+01
    -11.297  0.0000E+00  0.0000E+00  0.1000E+01  0.1000E+01
    -11.233  0.0000E+00  0.0000E+00  0.1000E+01  0.1000E+01
    -11.168  0.0000E+00  0.0000E+00  0.1000E+01  0.1000E+01
    -11.104  0.1144E+02  0.0000E+00  0.1738E+01  0.1000E+01
    -11.039  0.4069E+01  0.0000E+00  0.2000E+01  0.1000E+01
    -10.975  0.0000E+00  0.0000E+00  0.2000E+01  0.1000E+01
    -10.910  0.0000E+00  0.0000E+00  0.2000E+01  0.1000E+01
    -10.846  0.0000E+00  0.0000E+00  0.2000E+01  0.1000E+01
    -10.781  0.0000E+00  0.0000E+00  0.2000E+01  0.1000E+01
    -10.717  0.0000E+00  0.0000E+00  0.2000E+01  0.1000E+01
    -10.652  0.0000E+00  0.5099E-06  0.2000E+01  0.1000E+01
    -10.588  0.0000E+00  0.1550E+02  0.2000E+01  0.2000E+01
    -10.523  0.0000E+00  0.0000E+00  0.2000E+01  0.2000E+01
    -10.459  0.0000E+00  0.0000E+00  0.2000E+01  0.2000E+01
    -10.394  0.0000E+00  0.0000E+00  0.2000E+01  0.2000E+01
    -10.330  0.0000E+00  0.0000E+00  0.2000E+01  0.2000E+01
    -10.265  0.0000E+00  0.0000E+00  0.2000E+01  0.2000E+01
    -10.201  0.0000E+00  0.0000E+00  0.2000E+01  0.2000E+01
    -10.136  0.0000E+00  0.0000E+00  0.2000E+01  0.2000E+01
    -10.072  0.0000E+00  0.0000E+00  0.2000E+01  0.2000E+01
    -10.007  0.0000E+00  0.0000E+00  0.2000E+01  0.2000E+01
     -9.943  0.0000E+00  0.0000E+00  0.2000E+01  0.2000E+01
     -9.878  0.0000E+00  0.0000E+00  0.2000E+01  0.2000E+01
     -9.814  0.0000E+00  0.0000E+00  0.2000E+01  0.2000E+01
     -9.749  0.0000E+00  0.0000E+00  0.2000E+01  0.2000E+01
     -9.685  0.0000E+00  0.0000E+00  0.2000E+01  0.2000E+01
     -9.620  0.0000E+00  0.0000E+00  0.2000E+01  0.2000E+01
     -9.556  0.0000E+00  0.0000E+00  0.2000E+01  0.2000E+01
     -9.491  0.0000E+00  0.0000E+00  0.2000E+01  0.2000E+01
     -9.427  0.0000E+00  0.0000E+00  0.2000E+01  0.2000E+01
     -9.362  0.0000E+00  0.0000E+00  0.2000E+01  0.2000E+01
     -9.298  0.0000E+00  0.0000E+00  0.2000E+01  0.2000E+01
     -9.233  0.0000E+00  0.0000E+00  0.2000E+01  0.2000E+01
     -9.169  0.0000E+00  0.0000E+00  0.2000E+01  0.2000E+01
     -9.104  0.0000E+00  0.0000E+00  0.2000E+01  0.2000E+01
     -9.040  0.0000E+00  0.0000E+00  0.2000E+01  0.2000E+01
     -8.975  0.0000E+00  0.0000E+00  0.2000E+01  0.2000E+01
     -8.911  0.0000E+00  0.0000E+00  0.2000E+01  0.2000E+01
     -8.846  0.0000E+00  0.0000E+00  0.2000E+01  0.2000E+01
     -8.782  0.0000E+00  0.0000E+00  0.2000E+01  0.2000E+01
     -8.718  0.0000E+00  0.0000E+00  0.2000E+01  0.2000E+01
     -8.653  0.0000E+00  0.0000E+00  0.2000E+01  0.2000E+01
     -8.589  0.0000E+00  0.0000E+00  0.2000E+01  0.2000E+01
     -8.524  0.0000E+00  0.0000E+00  0.2000E+01  0.2000E+01
     -8.460  0.0000E+00  0.0000E+00  0.2000E+01  0.2000E+01
     -8.395  0.0000E+00  0.0000E+00  0.2000E+01  0.2000E+01
     -8.331  0.0000E+00  0.0000E+00  0.2000E+01  0.2000E+01
     -8.266  0.0000E+00  0.0000E+00  0.2000E+01  0.2000E+01
     -8.202  0.0000E+00  0.0000E+00  0.2000E+01  0.2000E+01
     -8.137  0.0000E+00  0.0000E+00  0.2000E+01  0.2000E+01
     -8.073  0.0000E+00  0.0000E+00  0.2000E+01  0.2000E+01
     -8.008  0.0000E+00  0.0000E+00  0.2000E+01  0.2000E+01
     -7.944  0.0000E+00  0.0000E+00  0.2000E+01  0.2000E+01
     -7.879  0.0000E+00  0.0000E+00  0.2000E+01  0.2000E+01
     -7.815  0.0000E+00  0.0000E+00  0.2000E+01  0.2000E+01
     -7.750  0.0000E+00  0.0000E+00  0.2000E+01  0.2000E+01
     -7.686  0.0000E+00  0.0000E+00  0.2000E+01  0.2000E+01
     -7.621  0.0000E+00  0.0000E+00  0.2000E+01  0.2000E+01
     -7.557  0.0000E+00  0.0000E+00  0.2000E+01  0.2000E+01
     -7.492  0.0000E+00  0.0000E+00  0.2000E+01  0.2000E+01
     -7.428  0.0000E+00  0.0000E+00  0.2000E+01  0.2000E+01
     -7.363  0.0000E+00  0.0000E+00  0.2000E+01  0.2000E+01
     -7.299  0.0000E+00  0.0000E+00  0.2000E+01  0.2000E+01
     -7.234  0.0000E+00  0.0000E+00  0.2000E+01  0.2000E+01
     -7.170  0.0000E+00  0.0000E+00  0.2000E+01  0.2000E+01
     -7.105  0.0000E+00  0.0000E+00  0.2000E+01  0.2000E+01
     -7.041  0.0000E+00  0.0000E+00  0.2000E+01  0.2000E+01
     -6.976  0.0000E+00  0.0000E+00  0.2000E+01  0.2000E+01
     -6.912  0.0000E+00  0.0000E+00  0.2000E+01  0.2000E+01
     -6.847  0.0000E+00  0.0000E+00  0.2000E+01  0.2000E+01
     -6.783  0.0000E+00  0.0000E+00  0.2000E+01  0.2000E+01
     -6.718  0.0000E+00  0.0000E+00  0.2000E+01  0.2000E+01
     -6.654  0.0000E+00  0.0000E+00  0.2000E+01  0.2000E+01
     -6.589  0.3388E+01  0.0000E+00  0.2219E+01  0.2000E+01
     -6.525  0.1212E+02  0.0000E+00  0.3000E+01  0.2000E+01
     -6.460  0.0000E+00  0.0000E+00  0.3000E+01  0.2000E+01
     -6.396  0.0000E+00  0.0000E+00  0.3000E+01  0.2000E+01
     -6.331  0.0000E+00  0.0000E+00  0.3000E+01  0.2000E+01
     -6.267  0.0000E+00  0.0000E+00  0.3000E+01  0.2000E+01
     -6.202  0.0000E+00  0.0000E+00  0.3000E+01  0.2000E+01
     -6.138  0.0000E+00  0.0000E+00  0.3000E+01  0.2000E+01
     -6.073  0.0000E+00  0.0000E+00  0.3000E+01  0.2000E+01
     -6.009  0.0000E+00  0.0000E+00  0.3000E+01  0.2000E+01
     -5.944  0.0000E+00  0.0000E+00  0.3000E+01  0.2000E+01
     -5.880  0.0000E+00  0.0000E+00  0.3000E+01  0.2000E+01
     -5.815  0.0000E+00  0.0000E+00  0.3000E+01  0.2000E+01
     -5.751  0.9080E-05  0.0000E+00  0.3000E+01  0.2000E+01
     -5.686  0.1551E+02  0.0000E+00  0.4000E+01  0.2000E+01
     -5.622  0.0000E+00  0.0000E+00  0.4000E+01  0.2000E+01
     -5.557  0.0000E+00  0.0000E+00  0.4000E+01  0.2000E+01
     -5.493  0.0000E+00  0.0000E+00  0.4000E+01  0.2000E+01
     -5.428  0.0000E+00  0.0000E+00  0.4000E+01  0.2000E+01
     -5.364  0.0000E+00  0.0000E+00  0.4000E+01  0.2000E+01
     -5.299  0.0000E+00  0.0000E+00  0.4000E+01  0.2000E+01
     -5.235  0.0000E+00  0.0000E+00  0.4000E+01  0.2000E+01
     -5.170  0.0000E+00  0.0000E+00  0.4000E+01  0.2000E+01
     -5.106  0.0000E+00  0.0000E+00  0.4000E+01  0.2000E+01
     -5.041  0.0000E+00  0.0000E+00  0.4000E+01  0.2000E+01
     -4.977  0.0000E+00  0.0000E+00  0.4000E+01  0.2000E+01
     -4.912  0.0000E+00  0.0000E+00  0.4000E+01  0.2000E+01
     -4.848  0.0000E+00  0.0000E+00  0.4000E+01  0.2000E+01
     -4.783  0.0000E+00  0.0000E+00  0.4000E+01  0.2000E+01
     -4.719  0.0000E+00  0.0000E+00  0.4000E+01  0.2000E+01
     -4.654  0.0000E+00  0.0000E+00  0.4000E+01  0.2000E+01
     -4.590  0.0000E+00  0.0000E+00  0.4000E+01  0.2000E+01
     -4.525  0.0000E+00  0.0000E+00  0.4000E+01  0.2000E+01
     -4.461  0.0000E+00  0.0000E+00  0.4000E+01  0.2000E+01
     -4.396  0.0000E+00  0.0000E+00  0.4000E+01  0.2000E+01
     -4.332  0.0000E+00  0.0000E+00  0.4000E+01  0.2000E+01
     -4.267  0.0000E+00  0.0000E+00  0.4000E+01  0.2000E+01
     -4.203  0.0000E+00  0.0000E+00  0.4000E+01  0.2000E+01
     -4.138  0.0000E+00  0.0000E+00  0.4000E+01  0.2000E+01
     -4.074  0.0000E+00  0.0000E+00  0.4000E+01  0.2000E+01
     -4.009  0.0000E+00  0.0000E+00  0.4000E+01  0.2000E+01
     -3.945  0.0000E+00  0.0000E+00  0.4000E+01  0.2000E+01
     -3.880  0.0000E+00  0.0000E+00  0.4000E+01  0.2000E+01
     -3.816  0.0000E+00  0.0000E+00  0.4000E+01  0.2000E+01
     -3.751  0.0000E+00  0.0000E+00  0.4000E+01  0.2000E+01
     -3.687  0.0000E+00  0.0000E+00  0.4000E+01  0.2000E+01
     -3.622  0.0000E+00  0.0000E+00  0.4000E+01  0.2000E+01
     -3.558  0.0000E+00  0.0000E+00  0.4000E+01  0.2000E+01
     -3.493  0.0000E+00  0.0000E+00  0.4000E+01  0.2000E+01
     -3.429  0.0000E+00  0.0000E+00  0.4000E+01  0.2000E+01
     -3.364  0.0000E+00  0.0000E+00  0.4000E+01  0.2000E+01
     -3.300  0.0000E+00  0.0000E+00  0.4000E+01  0.2000E+01
     -3.235  0.0000E+00  0.0000E+00  0.4000E+01  0.2000E+01
     -3.171  0.0000E+00  0.0000E+00  0.4000E+01  0.2000E+01
     -3.106  0.0000E+00  0.0000E+00  0.4000E+01  0.2000E+01
     -3.042  0.0000E+00  0.5917E+01  0.4000E+01  0.2382E+01
     -2.978  0.0000E+00  0.9588E+01  0.4000E+01  0.3000E+01
     -2.913  0.0000E+00  0.0000E+00  0.4000E+01  0.3000E+01
     -2.849  0.0000E+00  0.0000E+00  0.4000E+01  0.3000E+01
     -2.784  0.0000E+00  0.0000E+00  0.4000E+01  0.3000E+01
     -2.720  0.0000E+00  0.0000E+00  0.4000E+01  0.3000E+01
     -2.655  0.0000E+00  0.0000E+00  0.4000E+01  0.3000E+01
     -2.591  0.0000E+00  0.0000E+00  0.4000E+01  0.3000E+01
     -2.526  0.0000E+00  0.0000E+00  0.4000E+01  0.3000E+01
     -2.462  0.0000E+00  0.3514E+00  0.4000E+01  0.3023E+01
     -2.397  0.0000E+00  0.1515E+02  0.4000E+01  0.4000E+01
     -2.333  0.0000E+00  0.0000E+00  0.4000E+01  0.4000E+01
     -2.268  0.0000E+00  0.0000E+00  0.4000E+01  0.4000E+01
     -2.204  0.0000E+00  0.0000E+00  0.4000E+01  0.4000E+01
     -2.139  0.0000E+00  0.0000E+00  0.4000E+01  0.4000E+01
     -2.075  0.0000E+00  0.0000E+00  0.4000E+01  0.4000E+01
     -2.010  0.0000E+00  0.0000E+00  0.4000E+01  0.4000E+01
     -1.946  0.0000E+00  0.0000E+00  0.4000E+01  0.4000E+01
     -1.881  0.0000E+00  0.0000E+00  0.4000E+01  0.4000E+01
     -1.817  0.0000E+00  0.0000E+00  0.4000E+01  0.4000E+01
     -1.752  0.0000E+00  0.0000E+00  0.4000E+01  0.4000E+01
     -1.688  0.0000E+00  0.0000E+00  0.4000E+01  0.4000E+01
     -1.623  0.0000E+00  0.0000E+00  0.4000E+01  0.4000E+01
     -1.559  0.0000E+00  0.0000E+00  0.4000E+01  0.4000E+01
     -1.494  0.0000E+00  0.0000E+00  0.4000E+01  0.4000E+01
     -1.430  0.0000E+00  0.0000E+00  0.4000E+01  0.4000E+01
     -1.365  0.0000E+00  0.0000E+00  0.4000E+01  0.4000E+01
     -1.301  0.0000E+00  0.0000E+00  0.4000E+01  0.4000E+01
     -1.236  0.0000E+00  0.0000E+00  0.4000E+01  0.4000E+01
     -1.172  0.0000E+00  0.0000E+00  0.4000E+01  0.4000E+01
     -1.107  0.0000E+00  0.0000E+00  0.4000E+01  0.4000E+01
     -1.043  0.0000E+00  0.0000E+00  0.4000E+01  0.4000E+01
     -0.978  0.0000E+00  0.0000E+00  0.4000E+01  0.4000E+01
     -0.914  0.0000E+00  0.0000E+00  0.4000E+01  0.4000E+01
     -0.849  0.0000E+00  0.0000E+00  0.4000E+01  0.4000E+01
     -0.785  0.0000E+00  0.0000E+00  0.4000E+01  0.4000E+01
     -0.720  0.0000E+00  0.0000E+00  0.4000E+01  0.4000E+01
     -0.656  0.0000E+00  0.0000E+00  0.4000E+01  0.4000E+01
     -0.591  0.0000E+00  0.0000E+00  0.4000E+01  0.4000E+01
     -0.527  0.2883E-05  0.0000E+00  0.4000E+01  0.4000E+01
     -0.462  0.1550E+02  0.0000E+00  0.5000E+01  0.4000E+01
     -0.398  0.0000E+00  0.0000E+00  0.5000E+01  0.4000E+01
     -0.333  0.0000E+00  0.0000E+00  0.5000E+01  0.4000E+01
     -0.269  0.0000E+00  0.0000E+00  0.5000E+01  0.4000E+01
     -0.204  0.0000E+00  0.1000E-07  0.5000E+01  0.4000E+01
     -0.140  0.0000E+00  0.1549E+02  0.5000E+01  0.4999E+01
     -0.075  0.0000E+00  0.0000E+00  0.5000E+01  0.5000E+01
     -0.011  0.0000E+00  0.0000E+00  0.5000E+01  0.5000E+01
      0.054  0.2352E-10  0.0000E+00  0.5000E+01  0.5000E+01
      0.118  0.1526E+02  0.0000E+00  0.5984E+01  0.5000E+01
      0.183  0.2479E+00  0.0000E+00  0.6000E+01  0.5000E+01
      0.247  0.0000E+00  0.3177E+01  0.6000E+01  0.5205E+01
      0.312  0.1802E-06  0.1233E+02  0.6000E+01  0.6000E+01
      0.376  0.1550E+02  0.0000E+00  0.7000E+01  0.6000E+01
      0.441  0.3325E+02  0.2405E-01  0.9144E+01  0.6002E+01
      0.505  0.2855E+02  0.3716E+02  0.1099E+02  0.8398E+01
      0.570  0.0000E+00  0.3158E+02  0.1100E+02  0.1043E+02
      0.634  0.0000E+00  0.8728E+01  0.1100E+02  0.1100E+02
      0.699  0.0000E+00  0.0000E+00  0.1100E+02  0.1100E+02
      0.763  0.0000E+00  0.0000E+00  0.1100E+02  0.1100E+02
      0.828  0.5595E+00  0.0000E+00  0.1104E+02  0.1100E+02
      0.892  0.1495E+02  0.7062E-02  0.1200E+02  0.1100E+02
      0.957  0.0000E+00  0.1550E+02  0.1200E+02  0.1200E+02
      1.021  0.0000E+00  0.0000E+00  0.1200E+02  0.1200E+02
      1.086  0.0000E+00  0.0000E+00  0.1200E+02  0.1200E+02
      1.150  0.0000E+00  0.0000E+00  0.1200E+02  0.1200E+02
      1.215  0.0000E+00  0.0000E+00  0.1200E+02  0.1200E+02
      1.279  0.0000E+00  0.0000E+00  0.1200E+02  0.1200E+02
      1.344  0.0000E+00  0.0000E+00  0.1200E+02  0.1200E+02
      1.408  0.0000E+00  0.0000E+00  0.1200E+02  0.1200E+02
      1.473  0.0000E+00  0.0000E+00  0.1200E+02  0.1200E+02
      1.537  0.0000E+00  0.0000E+00  0.1200E+02  0.1200E+02
      1.602  0.0000E+00  0.0000E+00  0.1200E+02  0.1200E+02
      1.666  0.0000E+00  0.0000E+00  0.1200E+02  0.1200E+02
      1.731  0.0000E+00  0.0000E+00  0.1200E+02  0.1200E+02
      1.795  0.0000E+00  0.0000E+00  0.1200E+02  0.1200E+02
      1.79508435    -17.55323233  301     -5.67014117      1.00000000
    -17.553  0.0000E+00  0.0000E+00  0.0000E+00  0.0000E+00  0.0000E+00  0.0000E+00  0.0000E+00  0.0000E+00  0.0000E+00  0.0000E+00  0.0000E+00  0.0000E+00  0.0000E+00  0.0000E+00  0.0000E+00  0.0000E+00  0.0000E+00  0.0000E+00
    -17.489  0.0000E+00  0.0000E+00  0.0000E+00  0.0000E+00  0.0000E+00  0.0000E+00  0.0000E+00  0.0000E+00  0.0000E+00  0.0000E+00  0.0000E+00  0.0000E+00  0.0000E+00  0.0000E+00  0.0000E+00  0.0000E+00  0.0000E+00  0.0000E+00
    -17.424  0.0000E+00  0.0000E+00  0.0000E+00  0.0000E+00  0.0000E+00  0.0000E+00  0.0000E+00  0.0000E+00  0.0000E+00  0.0000E+00  0.0000E+00  0.0000E+00  0.0000E+00  0.0000E+00  0.0000E+00  0.0000E+00  0.0000E+00  0.0000E+00
    -17.360  0.0000E+00  0.0000E+00  0.0000E+00  0.0000E+00  0.0000E+00  0.0000E+00  0.0000E+00  0.0000E+00  0.0000E+00  0.0000E+00  0.0000E+00  0.0000E+00  0.0000E+00  0.0000E+00  0.0000E+00  0.0000E+00  0.0000E+00  0.0000E+00
    -17.295  0.0000E+00  0.0000E+00  0.0000E+00  0.0000E+00  0.0000E+00  0.0000E+00  0.0000E+00  0.0000E+00  0.0000E+00  0.0000E+00  0.0000E+00  0.0000E+00  0.0000E+00  0.0000E+00  0.0000E+00  0.0000E+00  0.0000E+00  0.0000E+00
    -17.231  0.0000E+00  0.0000E+00  0.0000E+00  0.0000E+00  0.0000E+00  0.0000E+00  0.0000E+00  0.0000E+00  0.0000E+00  0.0000E+00  0.0000E+00  0.0000E+00  0.0000E+00  0.0000E+00  0.0000E+00  0.0000E+00  0.0000E+00  0.0000E+00
    -17.166  0.0000E+00  0.0000E+00  0.0000E+00  0.0000E+00  0.0000E+00  0.0000E+00  0.0000E+00  0.0000E+00  0.0000E+00  0.0000E+00  0.0000E+00  0.0000E+00  0.0000E+00  0.0000E+00  0.0000E+00  0.0000E+00  0.0000E+00  0.0000E+00
    -17.102  0.0000E+00  0.0000E+00  0.0000E+00  0.0000E+00  0.0000E+00  0.0000E+00  0.0000E+00  0.0000E+00  0.0000E+00  0.0000E+00  0.0000E+00  0.0000E+00  0.0000E+00  0.0000E+00  0.0000E+00  0.0000E+00  0.0000E+00  0.0000E+00
    -17.037  0.0000E+00  0.0000E+00  0.0000E+00  0.0000E+00  0.0000E+00  0.0000E+00  0.0000E+00  0.0000E+00  0.0000E+00  0.0000E+00  0.0000E+00  0.0000E+00  0.0000E+00  0.0000E+00  0.0000E+00  0.0000E+00  0.0000E+00  0.0000E+00
    -16.973  0.0000E+00  0.0000E+00  0.0000E+00  0.0000E+00  0.0000E+00  0.0000E+00  0.0000E+00  0.0000E+00  0.0000E+00  0.0000E+00  0.0000E+00  0.0000E+00  0.0000E+00  0.0000E+00  0.0000E+00  0.0000E+00  0.0000E+00  0.0000E+00
    -16.908  0.0000E+00  0.0000E+00  0.0000E+00  0.0000E+00  0.0000E+00  0.0000E+00  0.0000E+00  0.0000E+00  0.0000E+00  0.0000E+00  0.0000E+00  0.0000E+00  0.0000E+00  0.0000E+00  0.0000E+00  0.0000E+00  0.0000E+00  0.0000E+00
    -16.844  0.0000E+00  0.0000E+00  0.0000E+00  0.0000E+00  0.0000E+00  0.0000E+00  0.0000E+00  0.0000E+00  0.0000E+00  0.0000E+00  0.0000E+00  0.0000E+00  0.0000E+00  0.0000E+00  0.0000E+00  0.0000E+00  0.0000E+00  0.0000E+00
    -16.779  0.0000E+00  0.0000E+00  0.0000E+00  0.0000E+00  0.0000E+00  0.0000E+00  0.0000E+00  0.0000E+00  0.0000E+00  0.0000E+00  0.0000E+00  0.0000E+00  0.0000E+00  0.0000E+00  0.0000E+00  0.0000E+00  0.0000E+00  0.0000E+00
    -16.715  0.5058E-08  0.0000E+00  0.4036E-09  0.0000E+00  0.2914E-32  0.0000E+00  0.4579E-10  0.0000E+00  0.0000E+00  0.0000E+00  0.0000E+00  0.0000E+00  0.0000E+00  0.0000E+00  0.0000E+00  0.0000E+00  0.0000E+00  0.0000E+00
    -16.650  0.1563E+01  0.0000E+00  0.1248E+00  0.0000E+00  0.9006E-24  0.0000E+00  0.1415E-01  0.0000E+00  0.0000E+00  0.0000E+00  0.0000E+00  0.0000E+00  0.0000E+00  0.0000E+00  0.0000E+00  0.0000E+00  0.0000E+00  0.0000E+00
    -16.586  0.0000E+00  0.0000E+00  0.0000E+00  0.0000E+00  0.0000E+00  0.0000E+00  0.0000E+00  0.0000E+00  0.0000E+00  0.0000E+00  0.0000E+00  0.0000E+00  0.0000E+00  0.0000E+00  0.0000E+00  0.0000E+00  0.0000E+00  0.0000E+00
    -16.521  0.0000E+00  0.0000E+00  0.0000E+00  0.0000E+00  0.0000E+00  0.0000E+00  0.0000E+00  0.0000E+00  0.0000E+00  0.0000E+00  0.0000E+00  0.0000E+00  0.0000E+00  0.0000E+00  0.0000E+00  0.0000E+00  0.0000E+00  0.0000E+00
    -16.457  0.0000E+00  0.0000E+00  0.0000E+00  0.0000E+00  0.0000E+00  0.0000E+00  0.0000E+00  0.0000E+00  0.0000E+00  0.0000E+00  0.0000E+00  0.0000E+00  0.0000E+00  0.0000E+00  0.0000E+00  0.0000E+00  0.0000E+00  0.0000E+00
    -16.392  0.0000E+00  0.0000E+00  0.0000E+00  0.0000E+00  0.0000E+00  0.0000E+00  0.0000E+00  0.0000E+00  0.0000E+00  0.0000E+00  0.0000E+00  0.0000E+00  0.0000E+00  0.0000E+00  0.0000E+00  0.0000E+00  0.0000E+00  0.0000E+00
    -16.328  0.0000E+00  0.0000E+00  0.0000E+00  0.0000E+00  0.0000E+00  0.0000E+00  0.0000E+00  0.0000E+00  0.0000E+00  0.0000E+00  0.0000E+00  0.0000E+00  0.0000E+00  0.0000E+00  0.0000E+00  0.0000E+00  0.0000E+00  0.0000E+00
    -16.263  0.0000E+00  0.0000E+00  0.0000E+00  0.0000E+00  0.0000E+00  0.0000E+00  0.0000E+00  0.0000E+00  0.0000E+00  0.0000E+00  0.0000E+00  0.0000E+00  0.0000E+00  0.0000E+00  0.0000E+00  0.0000E+00  0.0000E+00  0.0000E+00
    -16.199  0.0000E+00  0.0000E+00  0.0000E+00  0.0000E+00  0.0000E+00  0.0000E+00  0.0000E+00  0.0000E+00  0.0000E+00  0.0000E+00  0.0000E+00  0.0000E+00  0.0000E+00  0.0000E+00  0.0000E+00  0.0000E+00  0.0000E+00  0.0000E+00
    -16.134  0.0000E+00  0.0000E+00  0.0000E+00  0.0000E+00  0.0000E+00  0.0000E+00  0.0000E+00  0.0000E+00  0.0000E+00  0.0000E+00  0.0000E+00  0.0000E+00  0.0000E+00  0.0000E+00  0.0000E+00  0.0000E+00  0.0000E+00  0.0000E+00
    -16.070  0.0000E+00  0.0000E+00  0.0000E+00  0.0000E+00  0.0000E+00  0.0000E+00  0.0000E+00  0.0000E+00  0.0000E+00  0.0000E+00  0.0000E+00  0.0000E+00  0.0000E+00  0.0000E+00  0.0000E+00  0.0000E+00  0.0000E+00  0.0000E+00
    -16.005  0.0000E+00  0.0000E+00  0.0000E+00  0.0000E+00  0.0000E+00  0.0000E+00  0.0000E+00  0.0000E+00  0.0000E+00  0.0000E+00  0.0000E+00  0.0000E+00  0.0000E+00  0.0000E+00  0.0000E+00  0.0000E+00  0.0000E+00  0.0000E+00
    -15.941  0.0000E+00  0.0000E+00  0.0000E+00  0.0000E+00  0.0000E+00  0.0000E+00  0.0000E+00  0.0000E+00  0.0000E+00  0.0000E+00  0.0000E+00  0.0000E+00  0.0000E+00  0.0000E+00  0.0000E+00  0.0000E+00  0.0000E+00  0.0000E+00
    -15.876  0.0000E+00  0.0000E+00  0.0000E+00  0.0000E+00  0.0000E+00  0.0000E+00  0.0000E+00  0.0000E+00  0.0000E+00  0.0000E+00  0.0000E+00  0.0000E+00  0.0000E+00  0.0000E+00  0.0000E+00  0.0000E+00  0.0000E+00  0.0000E+00
    -15.812  0.0000E+00  0.0000E+00  0.0000E+00  0.0000E+00  0.0000E+00  0.0000E+00  0.0000E+00  0.0000E+00  0.0000E+00  0.0000E+00  0.0000E+00  0.0000E+00  0.0000E+00  0.0000E+00  0.0000E+00  0.0000E+00  0.0000E+00  0.0000E+00
    -15.747  0.0000E+00  0.0000E+00  0.0000E+00  0.0000E+00  0.0000E+00  0.0000E+00  0.0000E+00  0.0000E+00  0.0000E+00  0.0000E+00  0.0000E+00  0.0000E+00  0.0000E+00  0.0000E+00  0.0000E+00  0.0000E+00  0.0000E+00  0.0000E+00
    -15.683  0.0000E+00  0.0000E+00  0.0000E+00  0.0000E+00  0.0000E+00  0.0000E+00  0.0000E+00  0.0000E+00  0.0000E+00  0.0000E+00  0.0000E+00  0.0000E+00  0.0000E+00  0.0000E+00  0.0000E+00  0.0000E+00  0.0000E+00  0.0000E+00
    -15.618  0.0000E+00  0.0000E+00  0.0000E+00  0.0000E+00  0.0000E+00  0.0000E+00  0.0000E+00  0.0000E+00  0.0000E+00  0.0000E+00  0.0000E+00  0.0000E+00  0.0000E+00  0.0000E+00  0.0000E+00  0.0000E+00  0.0000E+00  0.0000E+00
    -15.554  0.0000E+00  0.0000E+00  0.0000E+00  0.0000E+00  0.0000E+00  0.0000E+00  0.0000E+00  0.0000E+00  0.0000E+00  0.0000E+00  0.0000E+00  0.0000E+00  0.0000E+00  0.0000E+00  0.0000E+00  0.0000E+00  0.0000E+00  0.0000E+00
    -15.489  0.0000E+00  0.0000E+00  0.0000E+00  0.0000E+00  0.0000E+00  0.0000E+00  0.0000E+00  0.0000E+00  0.0000E+00  0.0000E+00  0.0000E+00  0.0000E+00  0.0000E+00  0.0000E+00  0.0000E+00  0.0000E+00  0.0000E+00  0.0000E+00
    -15.425  0.0000E+00  0.0000E+00  0.0000E+00  0.0000E+00  0.0000E+00  0.0000E+00  0.0000E+00  0.0000E+00  0.0000E+00  0.0000E+00  0.0000E+00  0.0000E+00  0.0000E+00  0.0000E+00  0.0000E+00  0.0000E+00  0.0000E+00  0.0000E+00
    -15.360  0.0000E+00  0.0000E+00  0.0000E+00  0.0000E+00  0.0000E+00  0.0000E+00  0.0000E+00  0.0000E+00  0.0000E+00  0.0000E+00  0.0000E+00  0.0000E+00  0.0000E+00  0.0000E+00  0.0000E+00  0.0000E+00  0.0000E+00  0.0000E+00
    -15.296  0.0000E+00  0.0000E+00  0.0000E+00  0.0000E+00  0.0000E+00  0.0000E+00  0.0000E+00  0.0000E+00  0.0000E+00  0.0000E+00  0.0000E+00  0.0000E+00  0.0000E+00  0.0000E+00  0.0000E+00  0.0000E+00  0.0000E+00  0.0000E+00
    -15.231  0.0000E+00  0.0000E+00  0.0000E+00  0.0000E+00  0.0000E+00  0.0000E+00  0.0000E+00  0.0000E+00  0.0000E+00  0.0000E+00  0.0000E+00  0.0000E+00  0.0000E+00  0.0000E+00  0.0000E+00  0.0000E+00  0.0000E+00  0.0000E+00
    -15.167  0.0000E+00  0.0000E+00  0.0000E+00  0.0000E+00  0.0000E+00  0.0000E+00  0.0000E+00  0.0000E+00  0.0000E+00  0.0000E+00  0.0000E+00  0.0000E+00  0.0000E+00  0.0000E+00  0.0000E+00  0.0000E+00  0.0000E+00  0.0000E+00
    -15.102  0.0000E+00  0.0000E+00  0.0000E+00  0.0000E+00  0.0000E+00  0.0000E+00  0.0000E+00  0.0000E+00  0.0000E+00  0.0000E+00  0.0000E+00  0.0000E+00  0.0000E+00  0.0000E+00  0.0000E+00  0.0000E+00  0.0000E+00  0.0000E+00
    -15.038  0.0000E+00  0.0000E+00  0.0000E+00  0.0000E+00  0.0000E+00  0.0000E+00  0.0000E+00  0.0000E+00  0.0000E+00  0.0000E+00  0.0000E+00  0.0000E+00  0.0000E+00  0.0000E+00  0.0000E+00  0.0000E+00  0.0000E+00  0.0000E+00
    -14.973  0.0000E+00  0.0000E+00  0.0000E+00  0.0000E+00  0.0000E+00  0.0000E+00  0.0000E+00  0.0000E+00  0.0000E+00  0.0000E+00  0.0000E+00  0.0000E+00  0.0000E+00  0.0000E+00  0.0000E+00  0.0000E+00  0.0000E+00  0.0000E+00
    -14.909  0.0000E+00  0.0000E+00  0.0000E+00  0.0000E+00  0.0000E+00  0.0000E+00  0.0000E+00  0.0000E+00  0.0000E+00  0.0000E+00  0.0000E+00  0.0000E+00  0.0000E+00  0.0000E+00  0.0000E+00  0.0000E+00  0.0000E+00  0.0000E+00
    -14.844  0.0000E+00  0.6620E+00  0.0000E+00  0.4365E-01  0.0000E+00  0.8920E-22  0.0000E+00  0.5134E-02  0.0000E+00  0.0000E+00  0.0000E+00  0.0000E+00  0.0000E+00  0.0000E+00  0.0000E+00  0.0000E+00  0.0000E+00  0.0000E+00
    -14.780  0.0000E+00  0.1283E+01  0.0000E+00  0.8462E-01  0.0000E+00  0.1729E-21  0.0000E+00  0.9954E-02  0.0000E+00  0.0000E+00  0.0000E+00  0.0000E+00  0.0000E+00  0.0000E+00  0.0000E+00  0.0000E+00  0.0000E+00  0.0000E+00
    -14.715  0.0000E+00  0.0000E+00  0.0000E+00  0.0000E+00  0.0000E+00  0.0000E+00  0.0000E+00  0.0000E+00  0.0000E+00  0.0000E+00  0.0000E+00  0.0000E+00  0.0000E+00  0.0000E+00  0.0000E+00  0.0000E+00  0.0000E+00  0.0000E+00
    -14.651  0.0000E+00  0.0000E+00  0.0000E+00  0.0000E+00  0.0000E+00  0.0000E+00  0.0000E+00  0.0000E+00  0.0000E+00  0.0000E+00  0.0000E+00  0.0000E+00  0.0000E+00  0.0000E+00  0.0000E+00  0.0000E+00  0.0000E+00  0.0000E+00
    -14.586  0.0000E+00  0.0000E+00  0.0000E+00  0.0000E+00  0.0000E+00  0.0000E+00  0.0000E+00  0.0000E+00  0.0000E+00  0.0000E+00  0.0000E+00  0.0000E+00  0.0000E+00  0.0000E+00  0.0000E+00  0.0000E+00  0.0000E+00  0.0000E+00
    -14.522  0.0000E+00  0.0000E+00  0.0000E+00  0.0000E+00  0.0000E+00  0.0000E+00  0.0000E+00  0.0000E+00  0.0000E+00  0.0000E+00  0.0000E+00  0.0000E+00  0.0000E+00  0.0000E+00  0.0000E+00  0.0000E+00  0.0000E+00  0.0000E+00
    -14.458  0.0000E+00  0.0000E+00  0.0000E+00  0.0000E+00  0.0000E+00  0.0000E+00  0.0000E+00  0.0000E+00  0.0000E+00  0.0000E+00  0.0000E+00  0.0000E+00  0.0000E+00  0.0000E+00  0.0000E+00  0.0000E+00  0.0000E+00  0.0000E+00
    -14.393  0.0000E+00  0.0000E+00  0.0000E+00  0.0000E+00  0.0000E+00  0.0000E+00  0.0000E+00  0.0000E+00  0.0000E+00  0.0000E+00  0.0000E+00  0.0000E+00  0.0000E+00  0.0000E+00  0.0000E+00  0.0000E+00  0.0000E+00  0.0000E+00
    -14.329  0.0000E+00  0.0000E+00  0.0000E+00  0.0000E+00  0.0000E+00  0.0000E+00  0.0000E+00  0.0000E+00  0.0000E+00  0.0000E+00  0.0000E+00  0.0000E+00  0.0000E+00  0.0000E+00  0.0000E+00  0.0000E+00  0.0000E+00  0.0000E+00