    3    3    1    2
  0.1365333E+04  0.1600000E-08  0.1600000E-08  0.1600000E-08  0.5000000E-15
  1.000000000000000E-004
  CAR 
 unknown system                          
      6      1     12
 
  0.0000000E+00  0.0000000E+00  0.0000000E+00  0.1000000E+01
    1      -16.673763    -14.841557   1.000000   1.000000
    2      -11.108290    -10.614132   1.000000   1.000000
    3       -6.583691     -3.039865   1.000000   0.000000
    4       -5.716391     -2.447392   1.000000   0.000000
    5       -0.490773     -0.161330   0.000000   0.000000
    6        0.103065      0.253047   0.000000   0.000000
    7        0.351212      0.462103   0.000000   0.000000
    8        0.406090      0.464881   0.000000   0.000000
    9        0.414094      0.507026   0.000000   0.000000
   10        0.448198      0.549616   0.000000   0.000000
   11        0.489665      0.570811   0.000000   0.000000
   12        0.840383      0.915615   0.000000   0.000000
