PROCAR lm decomposed
# of k-points:    1         # of bands:  12         # of ions:   3

 k-point    1 :    0.00000000 0.00000000 0.00000000     weight = 1.00000000

band   1 # energy  -16.67376339 # occ.  1.00000000
 
ion      s     py     pz     px    dxy    dyz    dz2    dxz    dx2    tot
  1  0.101  0.008  0.000  0.001  0.000  0.000  0.000  0.000  0.000  0.110
  2  0.101  0.008  0.000  0.001  0.000  0.000  0.000  0.000  0.000  0.110
  3  0.447  0.000  0.000  0.008  0.000  0.000  0.000  0.000  0.000  0.455
tot  0.649  0.016  0.000  0.010  0.000  0.000  0.000  0.000  0.000  0.675
 
band   2 # energy  -11.10829018 # occ.  1.00000000
 
ion      s     py     pz     px    dxy    dyz    dz2    dxz    dx2    tot
  1  0.183  0.006  0.000  0.002  0.000  0.000  0.000  0.000  0.000  0.192
  2  0.183  0.006  0.000  0.002  0.000  0.000  0.000  0.000  0.000  0.192
  3  0.000  0.324  0.000  0.000  0.000  0.000  0.000  0.000  0.000  0.324
tot  0.366  0.337  0.000  0.005  0.000  0.000  0.000  0.000  0.000  0.708
 
band   3 # energy   -6.58369077 # occ.  1.00000000
 
ion      s     py     pz     px    dxy    dyz    dz2    dxz    dx2    tot
  1  0.025  0.002  0.000  0.003  0.000  0.000  0.000  0.000  0.000  0.030
  2  0.025  0.002  0.000  0.003  0.000  0.000  0.000  0.000  0.000  0.030
  3  0.030  0.000  0.000  0.402  0.000  0.000  0.000  0.000  0.000  0.432
tot  0.080  0.004  0.000  0.409  0.000  0.000  0.000  0.000  0.000  0.493
 
band   4 # energy   -5.71639059 # occ.  1.00000000
 
ion      s     py     pz     px    dxy    dyz    dz2    dxz    dx2    tot
  1  0.000  0.000  0.007  0.000  0.000  0.000  0.000  0.000  0.000  0.007
  2  0.000  0.000  0.007  0.000  0.000  0.000  0.000  0.000  0.000  0.007
  3  0.000  0.000  0.443  0.000  0.000  0.000  0.000  0.000  0.000  0.443
tot  0.000  0.000  0.458  0.000  0.000  0.000  0.000  0.000  0.000  0.458
 
band   5 # energy   -0.49077291 # occ.  0.00000000
 
ion      s     py     pz     px    dxy    dyz    dz2    dxz    dx2    tot
  1  0.001  0.003  0.000  0.000  0.000  0.000  0.000  0.000  0.000  0.004
  2  0.001  0.003  0.000  0.000  0.000  0.000  0.000  0.000  0.000  0.004
  3  0.030  0.000  0.000  0.004  0.000  0.000  0.000  0.000  0.000  0.034
tot  0.031  0.006  0.000  0.004  0.000  0.000  0.000  0.000  0.000  0.042
 
band   6 # energy    0.10306454 # occ.  0.00000000
 
ion      s     py     pz     px    dxy    dyz    dz2    dxz    dx2    tot
  1  0.000  0.001  0.000  0.000  0.000  0.000  0.000  0.000  0.000  0.002
  2  0.000  0.001  0.000  0.000  0.000  0.000  0.000  0.000  0.000  0.001
  3  0.009  0.000  0.000  0.002  0.000  0.000  0.000  0.000  0.000  0.010
tot  0.009  0.002  0.000  0.002  0.000  0.000  0.000  0.000  0.000  0.013
 
band   7 # energy    0.35121221 # occ.  0.00000000
 
ion      s     py     pz     px    dxy    dyz    dz2    dxz    dx2    tot
  1  0.001  0.001  0.000  0.000  0.000  0.000  0.000  0.000  0.000  0.002
  2  0.000  0.001  0.000  0.000  0.000  0.000  0.000  0.000  0.000  0.002
  3  0.000  0.013  0.000  0.000  0.000  0.000  0.000  0.000  0.000  0.013
tot  0.001  0.016  0.000  0.001  0.000  0.000  0.000  0.000  0.000  0.017
 
band   8 # energy    0.40609024 # occ.  0.00000000
 
ion      s     py     pz     px    dxy    dyz    dz2    dxz    dx2    tot
  1  0.000  0.000  0.000  0.000  0.000  0.000  0.000  0.000  0.000  0.000
  2  0.001  0.000  0.000  0.000  0.000  0.000  0.000  0.000  0.000  0.001
  3  0.001  0.000  0.000  0.005  0.000  0.000  0.000  0.000  0.000  0.006
tot  0.002  0.000  0.000  0.005  0.000  0.000  0.000  0.000  0.000  0.007
 
band   9 # energy    0.41409418 # occ.  0.00000000
 
ion      s     py     pz     px    dxy    dyz    dz2    dxz    dx2    tot
  1  0.000  0.000  0.000  0.000  0.000  0.000  0.000  0.000  0.000  0.000
  2  0.000  0.000  0.000  0.000  0.000  0.000  0.000  0.000  0.000  0.000
  3  0.000  0.000  0.009  0.000  0.000  0.000  0.000  0.000  0.000  0.009
tot  0.000  0.000  0.009  0.000  0.000  0.000  0.000  0.000  0.000  0.009
 
band  10 # energy    0.44819771 # occ.  0.00000000
 
ion      s     py     pz     px    dxy    dyz    dz2    dxz    dx2    tot
  1  0.000  0.000  0.000  0.000  0.000  0.000  0.000  0.000  0.000  0.000
  2  0.000  0.000  0.000  0.000  0.000  0.000  0.000  0.000  0.000  0.000
  3  0.000  0.000  0.000  0.002  0.000  0.000  0.000  0.000  0.000  0.002
tot  0.000  0.000  0.000  0.002  0.000  0.000  0.000  0.000  0.000  0.002
 
band  11 # energy    0.48966522 # occ.  0.00000000
 
ion      s     py     pz     px    dxy    dyz    dz2    dxz    dx2    tot
  1  0.000  0.000  0.000  0.000  0.000  0.000  0.000  0.000  0.000  0.000
  2  0.000  0.000  0.000  0.000  0.000  0.000  0.000  0.000  0.000  0.000
  3  0.000  0.000  0.000  0.000  0.000  0.000  0.000  0.000  0.000  0.001
tot  0.000  0.000  0.000  0.000  0.000  0.000  0.000  0.000  0.000  0.001
 
band  12 # energy    0.84038270 # occ.  0.00000000
 
ion      s     py     pz     px    dxy    dyz    dz2    dxz    dx2    tot
  1  0.000  0.002  0.000  0.000  0.000  0.000  0.000  0.000  0.000  0.002
  2  0.001  0.000  0.000  0.000  0.000  0.000  0.000  0.000  0.000  0.001
  3  0.000  0.010  0.000  0.001  0.000  0.000  0.000  0.000  0.000  0.011
tot  0.001  0.012  0.000  0.001  0.000  0.000  0.000  0.000  0.000  0.014
 
# of k-points:    1         # of bands:  12         # of ions:   3

 k-point    1 :    0.00000000 0.00000000 0.00000000     weight = 1.00000000

band   1 # energy  -14.84155720 # occ.  1.00000000
 
ion      s     py     pz     px    dxy    dyz    dz2    dxz    dx2    tot
  1  0.125  0.008  0.000  0.001  0.000  0.000  0.000  0.000  0.000  0.135
  2  0.125  0.008  0.000  0.001  0.000  0.000  0.000  0.000  0.000  0.135
  3  0.380  0.000  0.000  0.021  0.000  0.000  0.000  0.000  0.000  0.401
tot  0.631  0.017  0.000  0.023  0.000  0.000  0.000  0.000  0.000  0.671
 
band   2 # energy  -10.61413228 # occ.  1.00000000
 
ion      s     py     pz     px    dxy    dyz    dz2    dxz    dx2    tot
  1  0.191  0.006  0.000  0.003  0.000  0.000  0.000  0.000  0.000  0.200
  2  0.191  0.006  0.000  0.003  0.000  0.000  0.000  0.000  0.000  0.200
  3  0.000  0.308  0.000  0.000  0.000  0.000  0.000  0.000  0.000  0.308
tot  0.382  0.320  0.000  0.005  0.000  0.000  0.000  0.000  0.000  0.707
 
band   3 # energy   -3.03986455 # occ.  0.00000000
 
ion      s     py     pz     px    dxy    dyz    dz2    dxz    dx2    tot
  1  0.015  0.001  0.000  0.006  0.000  0.000  0.000  0.000  0.000  0.021
  2  0.015  0.001  0.000  0.006  0.000  0.000  0.000  0.000  0.000  0.021
  3  0.044  0.000  0.000  0.299  0.000  0.000  0.000  0.000  0.000  0.343
tot  0.074  0.002  0.000  0.310  0.000  0.000  0.000  0.000  0.000  0.386
 
band   4 # energy   -2.44739166 # occ.  0.00000000
 
ion      s     py     pz     px    dxy    dyz    dz2    dxz    dx2    tot
  1  0.000  0.000  0.009  0.000  0.000  0.000  0.000  0.000  0.000  0.009
  2  0.000  0.000  0.009  0.000  0.000  0.000  0.000  0.000  0.000  0.009
  3  0.000  0.000  0.335  0.000  0.000  0.000  0.000  0.000  0.000  0.335
tot  0.000  0.000  0.353  0.000  0.000  0.000  0.000  0.000  0.000  0.353
 
band   5 # energy   -0.16132988 # occ.  0.00000000
 
ion      s     py     pz     px    dxy    dyz    dz2    dxz    dx2    tot
  1  0.000  0.001  0.000  0.000  0.000  0.000  0.000  0.000  0.000  0.002
  2  0.000  0.001  0.000  0.000  0.000  0.000  0.000  0.000  0.000  0.001
  3  0.011  0.000  0.000  0.002  0.000  0.000  0.000  0.000  0.000  0.013
tot  0.011  0.003  0.000  0.002  0.000  0.000  0.000  0.000  0.000  0.016
 
band   6 # energy    0.25304656 # occ.  0.00000000
 
ion      s     py     pz     px    dxy    dyz    dz2    dxz    dx2    tot
  1  0.000  0.002  0.000  0.000  0.000  0.000  0.000  0.000  0.000  0.003
  2  0.000  0.003  0.000  0.000  0.000  0.000  0.000  0.000  0.000  0.003
  3  0.017  0.000  0.000  0.005  0.000  0.000  0.000  0.000  0.000  0.022
tot  0.017  0.005  0.000  0.005  0.000  0.000  0.000  0.000  0.000  0.027
 
band   7 # energy    0.46210273 # occ.  0.00000000
 
ion      s     py     pz     px    dxy    dyz    dz2    dxz    dx2    tot
  1  0.000  0.000  0.000  0.000  0.000  0.000  0.000  0.000  0.000  0.001
  2  0.000  0.000  0.000  0.000  0.000  0.000  0.000  0.000  0.000  0.000
  3  0.000  0.004  0.000  0.000  0.000  0.000  0.000  0.000  0.000  0.004
tot  0.001  0.004  0.000  0.000  0.000  0.000  0.000  0.000  0.000  0.005
 
band   8 # energy    0.46488131 # occ.  0.00000000
 
ion      s     py     pz     px    dxy    dyz    dz2    dxz    dx2    tot
  1  0.000  0.000  0.000  0.000  0.000  0.000  0.000  0.000  0.000  0.000
  2  0.000  0.000  0.000  0.000  0.000  0.000  0.000  0.000  0.000  0.001
  3  0.000  0.004  0.000  0.000  0.000  0.000  0.000  0.000  0.000  0.004
tot  0.001  0.004  0.000  0.000  0.000  0.000  0.000  0.000  0.000  0.005
 
band   9 # energy    0.50702637 # occ.  0.00000000
 
ion      s     py     pz     px    dxy    dyz    dz2    dxz    dx2    tot
  1  0.000  0.000  0.000  0.000  0.000  0.000  0.000  0.000  0.000  0.000
  2  0.000  0.000  0.000  0.000  0.000  0.000  0.000  0.000  0.000  0.000
  3  0.000  0.000  0.000  0.000  0.000  0.000  0.000  0.000  0.000  0.001
tot  0.000  0.000  0.000  0.000  0.000  0.000  0.000  0.000  0.000  0.001
 
band  10 # energy    0.54961614 # occ.  0.00000000
 
ion      s     py     pz     px    dxy    dyz    dz2    dxz    dx2    tot
  1  0.000  0.000  0.000  0.000  0.000  0.000  0.000  0.000  0.000  0.000
  2  0.000  0.000  0.000  0.000  0.000  0.000  0.000  0.000  0.000  0.000
  3  0.000  0.000  0.004  0.000  0.000  0.000  0.000  0.000  0.000  0.004
tot  0.000  0.000  0.004  0.000  0.000  0.000  0.000  0.000  0.000  0.004
 
band  11 # energy    0.57081075 # occ.  0.00000000
 
ion      s     py     pz     px    dxy    dyz    dz2    dxz    dx2    tot
  1  0.000  0.000  0.000  0.000  0.000  0.000  0.000  0.000  0.000  0.000
  2  0.000  0.000  0.000  0.000  0.000  0.000  0.000  0.000  0.000  0.000
  3  0.001  0.000  0.000  0.001  0.000  0.000  0.000  0.000  0.000  0.003
tot  0.002  0.000  0.000  0.001  0.000  0.000  0.000  0.000  0.000  0.003
 
band  12 # energy    0.91561541 # occ.  0.00000000
 
ion      s     py     pz     px    dxy    dyz    dz2    dxz    dx2    tot
  1  0.001  0.001  0.000  0.000  0.000  0.000  0.000  0.000  0.000  0.002
  2  0.000  0.001  0.000  0.000  0.000  0.000  0.000  0.000  0.000  0.002
  3  0.000  0.012  0.000  0.000  0.000  0.000  0.000  0.000  0.000  0.012
tot  0.001  0.014  0.000  0.001  0.000  0.000  0.000  0.000  0.000  0.016
 
