<?xml version="1.0" encoding="ISO-8859-1"?>
<modeling>
 <generator>
  <i name="program" type="string">vasp </i>
  <i name="version" type="string">5.4.1  </i>
  <i name="subversion" type="string">05Feb16 (build Feb 08 2018 09:21:51) complex                          parallel </i>
  <i name="platform" type="string">LinuxIFC </i>
  <i name="date" type="string">2019 12 03 </i>
  <i name="time" type="string">09:07:58 </i>
 </generator>
 <incar>
  <i type="string" name="PREC">normal</i>
  <i type="int" name="ISPIN">     2</i>
  <i type="int" name="IBRION">    -1</i>
  <i name="ENCUT">    400.00000000</i>
  <v name="MAGMOM">      0.00000000      2.00000000      0.00000000</v>
  <i type="string" name="LREAL"> A</i>
  <i type="int" name="ISMEAR">     0</i>
  <i name="SIGMA">      0.01000000</i>
  <i type="logical" name="LWAVE"> F  </i>
  <i type="logical" name="LCHARG"> F  </i>
  <i type="logical" name="LORBIT"> F  </i>
  <v type="int" name="KPOINT_BSE">    -1     0     0     0</v>
 </incar>
 <kpoints>
  <generation param="Monkhorst-Pack">
   <v type="int" name="divisions">       1        1        1 </v>
   <v name="usershift">      0.00000000       0.00000000       0.00000000 </v>
   <v name="genvec1">      1.00000000       0.00000000       0.00000000 </v>
   <v name="genvec2">      0.00000000       1.00000000       0.00000000 </v>
   <v name="genvec3">      0.00000000       0.00000000       1.00000000 </v>
   <v name="shift">      0.00000000       0.00000000       0.00000000 </v>
  </generation>
  <varray name="kpointlist" >
   <v>       0.00000000       0.00000000       0.00000000 </v>
  </varray>
  <varray name="weights" >
   <v>       1.00000000 </v>
  </varray>
 </kpoints>
 <parameters>
  <separator name="general" >
   <i type="string" name="SYSTEM">unknown system</i>
   <i type="logical" name="LCOMPAT"> F  </i>
  </separator>
  <separator name="electronic" >
   <i type="string" name="PREC">normal</i>
   <i name="ENMAX">    400.00000000</i>
   <i name="ENAUG">    644.87300000</i>
   <i name="EDIFF">      0.00010000</i>
   <i type="int" name="IALGO">    38</i>
   <i type="int" name="IWAVPR">    10</i>
   <i type="int" name="NBANDS">    12</i>
   <i name="NELECT">      6.00000000</i>
   <i type="int" name="TURBO">     0</i>
   <i type="int" name="IRESTART">     0</i>
   <i type="int" name="NREBOOT">     0</i>
   <i type="int" name="NMIN">     0</i>
   <i name="EREF">      0.00000000</i>
   <separator name="electronic smearing" >
    <i type="int" name="ISMEAR">     0</i>
    <i name="SIGMA">      0.01000000</i>
    <i name="KSPACING">      0.50000000</i>
    <i type="logical" name="KGAMMA"> T  </i>
   </separator>
   <separator name="electronic projectors" >
    <i type="logical" name="LREAL"> T  </i>
    <v name="ROPT">     -0.00050000     -0.00050000</v>
    <i type="int" name="LMAXPAW">  -100</i>
    <i type="int" name="LMAXMIX">     2</i>
    <i type="logical" name="NLSPLINE"> F  </i>
   </separator>
   <separator name="electronic startup" >
    <i type="int" name="ISTART">     0</i>
    <i type="int" name="ICHARG">     2</i>
    <i type="int" name="INIWAV">     1</i>
   </separator>
   <separator name="electronic spin" >
    <i type="int" name="ISPIN">     2</i>
    <i type="logical" name="LNONCOLLINEAR"> F  </i>
    <v name="MAGMOM">      0.00000000      2.00000000      0.00000000</v>
    <i name="NUPDOWN">     -1.00000000</i>
    <i type="logical" name="LSORBIT"> F  </i>
    <v name="SAXIS">      0.00000000      0.00000000      1.00000000</v>
    <i type="logical" name="LSPIRAL"> F  </i>
    <v name="QSPIRAL">      0.00000000      0.00000000      0.00000000</v>
    <i type="logical" name="LZEROZ"> F  </i>
   </separator>
   <separator name="electronic exchange-correlation" >
    <i type="logical" name="LASPH"> F  </i>
    <i type="logical" name="LMETAGGA"> F  </i>
   </separator>
   <separator name="electronic convergence" >
    <i type="int" name="NELM">    60</i>
    <i type="int" name="NELMDL">    -5</i>
    <i type="int" name="NELMIN">     2</i>
    <i name="ENINI">    400.00000000</i>
    <separator name="electronic convergence detail" >
     <i type="logical" name="LDIAG"> T  </i>
     <i type="logical" name="LSUBROT"> F  </i>
     <i name="WEIMIN">      0.00000000</i>
     <i name="EBREAK">      0.00000208</i>
     <i name="DEPER">      0.30000000</i>
     <i type="int" name="NRMM">     4</i>
     <i name="TIME">      0.40000000</i>
    </separator>
   </separator>
   <separator name="electronic mixer" >
    <i name="AMIX">      0.40000000</i>
    <i name="BMIX">      1.00000000</i>
    <i name="AMIN">      0.10000000</i>
    <i name="AMIX_MAG">      1.60000000</i>
    <i name="BMIX_MAG">      1.00000000</i>
    <separator name="electronic mixer details" >
     <i type="int" name="IMIX">     4</i>
     <i type="logical" name="MIXFIRST"> F  </i>
     <i type="int" name="MAXMIX">   -45</i>
     <i name="WC">    100.00000000</i>
     <i type="int" name="INIMIX">     1</i>
     <i type="int" name="MIXPRE">     1</i>
     <i type="int" name="MREMOVE">     5</i>
    </separator>
   </separator>
   <separator name="electronic dipolcorrection" >
    <i type="logical" name="LDIPOL"> F  </i>
    <i type="logical" name="LMONO"> F  </i>
    <i type="int" name="IDIPOL">     0</i>
    <i name="EPSILON">      1.00000000</i>
    <v name="DIPOL">   -100.00000000   -100.00000000   -100.00000000</v>
    <i name="EFIELD">      0.00000000</i>
   </separator>
  </separator>
  <separator name="grids" >
   <i type="int" name="NGX">    80</i>
   <i type="int" name="NGY">    80</i>
   <i type="int" name="NGZ">    80</i>
   <i type="int" name="NGXF">   160</i>
   <i type="int" name="NGYF">   160</i>
   <i type="int" name="NGZF">   160</i>
   <i type="logical" name="ADDGRID"> F  </i>
  </separator>
  <separator name="ionic" >
   <i type="int" name="NSW">     0</i>
   <i type="int" name="IBRION">    -1</i>
   <i type="int" name="ISIF">     2</i>
   <i name="PSTRESS">      0.00000000</i>
   <i name="EDIFFG">      0.00100000</i>
   <i type="int" name="NFREE">     0</i>
   <i name="POTIM">      0.50000000</i>
   <i name="SMASS">     -3.00000000</i>
   <i name="SCALEE">      1.00000000</i>
  </separator>
  <separator name="ionic md" >
   <i name="TEBEG">      0.00010000</i>
   <i name="TEEND">      0.00010000</i>
   <i type="int" name="NBLOCK">     1</i>
   <i type="int" name="KBLOCK">     1</i>
   <i type="int" name="NPACO">   256</i>
   <i name="APACO">     16.00000000</i>
  </separator>
  <separator name="symmetry" >
   <i type="int" name="ISYM">     2</i>
   <i name="SYMPREC">      0.00001000</i>
  </separator>
  <separator name="dos" >
   <i type="logical" name="LORBIT"> F  </i>
   <v name="RWIGS">     -1.00000000     -1.00000000</v>
   <i type="int" name="NEDOS">   301</i>
   <i name="EMIN">     10.00000000</i>
   <i name="EMAX">    -10.00000000</i>
   <i name="EFERMI">      0.00000000</i>
  </separator>
  <separator name="writing" >
   <i type="int" name="NWRITE">     2</i>
   <i type="logical" name="LWAVE"> F  </i>
   <i type="logical" name="LCHARG"> F  </i>
   <i type="logical" name="LPARD"> F  </i>
   <i type="logical" name="LVTOT"> F  </i>
   <i type="logical" name="LVHAR"> F  </i>
   <i type="logical" name="LELF"> F  </i>
   <i type="logical" name="LOPTICS"> F  </i>
   <v name="STM">      0.00000000      0.00000000      0.00000000      0.00000000      0.00000000      0.00000000      0.00000000</v>
  </separator>
  <separator name="performance" >
   <i type="int" name="NPAR">     6</i>
   <i type="int" name="NSIM">     4</i>
   <i type="int" name="NBLK">    -1</i>
   <i type="logical" name="LPLANE"> T  </i>
   <i type="logical" name="LSCALAPACK"> F  </i>
   <i type="logical" name="LSCAAWARE"> F  </i>
   <i type="logical" name="LSCALU"> F  </i>
   <i type="logical" name="LASYNC"> F  </i>
   <i type="logical" name="LORBITALREAL"> F  </i>
  </separator>
  <separator name="miscellaneous" >
   <i type="int" name="IDIOT">     3</i>
   <i type="logical" name="LMUSIC"> F  </i>
   <v name="POMASS">      1.00000000     12.01100000</v>
   <v name="DARWINR">      0.00000000      0.00000000</v>
   <v name="DARWINV">      1.00000000      1.00000000</v>
   <i type="logical" name="LCORR"> T  </i>
  </separator>
  <i type="logical" name="GGA_COMPAT"> T  </i>
  <i type="logical" name="LBERRY"> F  </i>
  <i type="int" name="ICORELEVEL">     0</i>
  <i type="logical" name="LDAU"> F  </i>
  <i type="int" name="I_CONSTRAINED_M">     0</i>
  <separator name="electronic exchange-correlation" >
   <i type="string" name="GGA">--</i>
   <i type="int" name="VOSKOWN">     0</i>
   <i type="logical" name="LHFCALC"> F  </i>
   <i type="string" name="PRECFOCK"></i>
   <i type="logical" name="LSYMGRAD"> F  </i>
   <i type="logical" name="LHFONE"> F  </i>
   <i type="logical" name="LRHFCALC"> F  </i>
   <i type="logical" name="LTHOMAS"> F  </i>
   <i type="logical" name="LMODELHF"> F  </i>
   <i name="ENCUT4O">     -1.00000000</i>
   <i type="int" name="EXXOEP">     0</i>
   <i type="int" name="FOURORBIT">     0</i>
   <i name="AEXX">      0.00000000</i>
   <i name="HFALPHA">      0.00000000</i>
   <i name="MCALPHA">      0.00000000</i>
   <i name="ALDAX">      1.00000000</i>
   <i name="AGGAX">      1.00000000</i>
   <i name="ALDAC">      1.00000000</i>
   <i name="AGGAC">      1.00000000</i>
   <i type="int" name="NKREDX">     1</i>
   <i type="int" name="NKREDY">     1</i>
   <i type="int" name="NKREDZ">     1</i>
   <i type="logical" name="SHIFTRED"> F  </i>
   <i type="logical" name="ODDONLY"> F  </i>
   <i type="logical" name="EVENONLY"> F  </i>
   <i type="int" name="LMAXFOCK">     0</i>
   <i type="int" name="NMAXFOCKAE">     0</i>
   <i type="logical" name="LFOCKAEDFT"> F  </i>
   <i name="HFSCREEN">      0.00000000</i>
   <i name="HFSCREENC">      0.00000000</i>
   <i type="int" name="NBANDSGWLOW">     0</i>
  </separator>
  <separator name="vdW DFT" >
   <i type="logical" name="LUSE_VDW"> F  </i>
   <i name="Zab_VDW">     -0.84910000</i>
   <i name="PARAM1">      0.12340000</i>
   <i name="PARAM2">      1.00000000</i>
   <i name="PARAM3">      0.00000000</i>
  </separator>
  <separator name="model GW" >
   <i type="int" name="MODEL_GW">     0</i>
   <i name="MODEL_EPS0">    819.20000000</i>
   <i name="MODEL_ALPHA">      1.00000000</i>
  </separator>
  <separator name="linear response parameters" >
   <i type="logical" name="LEPSILON"> F  </i>
   <i type="logical" name="LRPA"> F  </i>
   <i type="logical" name="LNABLA"> F  </i>
   <i type="logical" name="LVEL"> F  </i>
   <i type="int" name="KINTER">     0</i>
   <i name="CSHIFT">      0.10000000</i>
   <i name="OMEGAMAX">     -1.00000000</i>
   <i name="DEG_THRESHOLD">      0.00200000</i>
  </separator>
  <separator name="orbital magnetization" >
   <i type="logical" name="NUCIND"> F  </i>
   <v name="MAGPOS">      0.00000000      0.00000000      0.00000000</v>
   <i type="logical" name="LNICSALL"> T  </i>
   <i type="logical" name="ORBITALMAG"> F  </i>
   <i type="logical" name="LMAGBLOCH"> F  </i>
   <i type="logical" name="LCHIMAG"> F  </i>
   <i type="logical" name="LGAUGE"> T  </i>
   <i type="int" name="MAGATOM">     0</i>
   <v name="MAGDIPOL">      0.00000000      0.00000000      0.00000000</v>
   <v name="AVECCONST">      0.00000000      0.00000000      0.00000000</v>
  </separator>
  <separator name="response functions" >
   <i type="logical" name="LADDER"> F  </i>
   <i type="logical" name="LFXC"> F  </i>
   <i type="logical" name="LHARTREE"> T  </i>
   <i type="int" name="IBSE">     0</i>
   <v type="int" name="KPOINT">    -1     0     0     0</v>
   <i type="logical" name="LTCTE"> F  </i>
   <i type="logical" name="LTETE"> F  </i>
   <i type="logical" name="LTRIPLET"> F  </i>
   <i type="logical" name="LFXCEPS"> F  </i>
   <i type="logical" name="LFXHEG"> F  </i>
   <i type="int" name="NATURALO">     0</i>
   <i type="logical" name="L2ORDER"> F  </i>
   <i type="logical" name="LUSEW"> F  </i>
   <i name="ENCUTGW">     -2.00000000</i>
   <i name="ENCUTGWSOFT">     -2.00000000</i>
   <i name="ENCUTLF">     -1.00000000</i>
   <i type="int" name="LMAXMP2">    -1</i>
   <i name="SCISSOR">      0.00000000</i>
   <i type="int" name="NOMEGA">     0</i>
   <i type="int" name="NOMEGAR">     0</i>
   <i type="int" name="NBANDSGW">    -1</i>
   <i type="int" name="NBANDSO">    -1</i>
   <i type="int" name="NBANDSV">    -1</i>
   <i type="int" name="NELM">     1</i>
   <i type="int" name="NELMHF">     1</i>
   <i type="int" name="DIM">     3</i>
   <i type="int" name="ANTIRES">     0</i>
   <i name="OMEGAMAX">    -30.00000000</i>
   <i name="OMEGAMIN">    -30.00000000</i>
   <i name="OMEGATL">   -200.00000000</i>
   <i type="int" name="OMEGAGRID">     0</i>
   <i name="CSHIFT">     -0.10000000</i>
   <i type="logical" name="SELFENERGY"> F  </i>
   <i type="logical" name="LSPECTRAL"> F  </i>
   <i type="logical" name="LSPECTRALGW"> F  </i>
   <i type="logical" name="LSINGLES"> F  </i>
   <i type="logical" name="LFERMIGW"> F  </i>
   <i type="logical" name="ODDONLYGW"> F  </i>
   <i type="logical" name="EVENONLYGW"> F  </i>
   <i type="int" name="NKREDLFX">     1</i>
   <i type="int" name="NKREDLFY">     1</i>
   <i type="int" name="NKREDLFZ">     1</i>
   <i type="int" name="MAXMEM">  1800</i>
   <i type="int" name="TELESCOPE">     0</i>
   <i type="int" name="TAUPAR">     1</i>
   <i type="int" name="OMEGAPAR">    -1</i>
   <i name="LAMBDA">      1.00000000</i>
  </separator>
  <separator name="External order field" >
   <i name="OFIELD_KAPPA">      0.00000000</i>
   <v name="OFIELD_K">      0.00000000      0.00000000      0.00000000</v>
   <i name="OFIELD_Q6_NEAR">      0.00000000</i>
   <i name="OFIELD_Q6_FAR">      0.00000000</i>
   <i name="OFIELD_A">      0.00000000</i>
  </separator>
 </parameters>
 <atominfo>
  <atoms>       3 </atoms>
  <types>       2 </types>
  <array name="atoms" >
   <dimension dim="1">ion</dimension>
   <field type="string">element</field>
   <field type="int">atomtype</field>
   <set>
    <rc><c>H </c><c>   1</c></rc>
    <rc><c>H </c><c>   1</c></rc>
    <rc><c>C </c><c>   2</c></rc>
   </set>
  </array>
  <array name="atomtypes" >
   <dimension dim="1">type</dimension>
   <field type="int">atomspertype</field>
   <field type="string">element</field>
   <field>mass</field>
   <field>valence</field>
   <field type="string">pseudopotential</field>
   <set>
    <rc><c>   2</c><c>H </c><c>      1.00000000</c><c>      1.00000000</c><c>  PAW_PBE H 15Jun2001                   </c></rc>
    <rc><c>   1</c><c>C </c><c>     12.01100000</c><c>      4.00000000</c><c>  PAW_PBE C 08Apr2002                   </c></rc>
   </set>
  </array>
 </atominfo>
 <structure name="initialpos" >
  <crystal>
   <varray name="basis" >
    <v>      16.00000000       0.00000000       0.00000000 </v>
    <v>       0.00000000      16.00000000       0.00000000 </v>
    <v>       0.00000000       0.00000000      16.00000000 </v>
   </varray>
   <i name="volume">   4096.00000000 </i>
   <varray name="rec_basis" >
    <v>       0.06250000       0.00000000       0.00000000 </v>
    <v>       0.00000000       0.06250000       0.00000000 </v>
    <v>       0.00000000       0.00000000       0.06250000 </v>
   </varray>
  </crystal>
  <varray name="positions" >
   <v>       0.51485159       0.43726867       0.50000000 </v>
   <v>       0.51485159       0.56273133       0.50000000 </v>
   <v>       0.48892437       0.50000000       0.50000000 </v>
  </varray>
 </structure>
 <calculation>
  <scstep>
   <time name="dav">    0.15    0.15</time>
   <time name="total">    0.32    0.35</time>
   <energy>
    <i name="alphaZ">      0.03722024 </i>
    <i name="ewald">     67.38071093 </i>
    <i name="hartreedc">   -184.04934086 </i>
    <i name="XCdc">     24.13319366 </i>
    <i name="pawpsdc">     99.73956800 </i>
    <i name="pawaedc">    -99.78843352 </i>
    <i name="eentropy">     -0.00000000 </i>
    <i name="bandstr">    -51.56729211 </i>
    <i name="atom">    172.08448920 </i>
    <i name="e_fr_energy">     27.97011553 </i>
    <i name="e_wo_entrp">     27.97011553 </i>
    <i name="e_0_energy">     27.97011553 </i>
   </energy>
  </scstep>
  <scstep>
   <time name="dav">    0.14    0.14</time>
   <time name="total">    0.14    0.14</time>
   <energy>
    <i name="e_fr_energy">      4.19988237 </i>
    <i name="e_wo_entrp">      4.19988237 </i>
    <i name="e_0_energy">      4.19988237 </i>
   </energy>
  </scstep>
  <scstep>
   <time name="dav">    0.10    0.10</time>
   <time name="total">    0.10    0.10</time>
   <energy>
    <i name="e_fr_energy">      0.88844921 </i>
    <i name="e_wo_entrp">      0.88844921 </i>
    <i name="e_0_energy">      0.88844921 </i>
   </energy>
  </scstep>
  <scstep>
   <time name="dav">    0.15    0.15</time>
   <time name="total">    0.16    0.16</time>
   <energy>
    <i name="e_fr_energy">      0.83057162 </i>
    <i name="e_wo_entrp">      0.83057162 </i>
    <i name="e_0_energy">      0.83057162 </i>
   </energy>
  </scstep>
  <scstep>
   <time name="dav">    0.12    0.12</time>
   <time name="total">    0.29    0.30</time>
   <energy>
    <i name="e_fr_energy">      0.82980810 </i>
    <i name="e_wo_entrp">      0.82980810 </i>
    <i name="e_0_energy">      0.82980810 </i>
   </energy>
  </scstep>
  <scstep>
   <time name="dav">    0.09    0.09</time>
   <time name="total">    0.38    0.38</time>
   <energy>
    <i name="e_fr_energy">     -9.66826554 </i>
    <i name="e_wo_entrp">     -9.66826554 </i>
    <i name="e_0_energy">     -9.66826554 </i>
   </energy>
  </scstep>
  <scstep>
   <time name="dav">    0.15    0.15</time>
   <time name="total">    0.47    0.47</time>
   <energy>
    <i name="e_fr_energy">    -11.20312824 </i>
    <i name="e_wo_entrp">    -11.20312824 </i>
    <i name="e_0_energy">    -11.20312824 </i>
   </energy>
  </scstep>
  <scstep>
   <time name="dav">    0.12    0.12</time>
   <time name="total">    0.45    0.46</time>
   <energy>
    <i name="e_fr_energy">    -11.58060267 </i>
    <i name="e_wo_entrp">    -11.58060267 </i>
    <i name="e_0_energy">    -11.58060267 </i>
   </energy>
  </scstep>
  <scstep>
   <time name="dav">    0.09    0.09</time>
   <time name="total">    0.41    0.41</time>
   <energy>
    <i name="e_fr_energy">    -11.85051478 </i>
    <i name="e_wo_entrp">    -11.85051478 </i>
    <i name="e_0_energy">    -11.85051478 </i>
   </energy>
  </scstep>
  <scstep>
   <time name="dav">    0.13    0.13</time>
   <time name="total">    0.44    0.44</time>
   <energy>
    <i name="e_fr_energy">    -11.91774782 </i>
    <i name="e_wo_entrp">    -11.91774782 </i>
    <i name="e_0_energy">    -11.91774782 </i>
   </energy>
  </scstep>
  <scstep>
   <time name="dav">    0.09    0.09</time>
   <time name="total">    0.38    0.38</time>
   <energy>
    <i name="e_fr_energy">    -11.96434892 </i>
    <i name="e_wo_entrp">    -11.96434892 </i>
    <i name="e_0_energy">    -11.96434892 </i>
   </energy>
  </scstep>
  <scstep>
   <time name="dav">    0.12    0.12</time>
   <time name="total">    0.41    0.41</time>
   <energy>
    <i name="e_fr_energy">    -12.04271835 </i>
    <i name="e_wo_entrp">    -12.04271835 </i>
    <i name="e_0_energy">    -12.04271835 </i>
   </energy>
  </scstep>
  <scstep>
   <time name="dav">    0.15    0.15</time>
   <time name="total">    0.54    0.54</time>
   <energy>
    <i name="e_fr_energy">    -12.07098489 </i>
    <i name="e_wo_entrp">    -12.07098489 </i>
    <i name="e_0_energy">    -12.07098489 </i>
   </energy>
  </scstep>
  <scstep>
   <time name="dav">    0.17    0.17</time>
   <time name="total">    0.50    0.50</time>
   <energy>
    <i name="e_fr_energy">    -12.08974092 </i>
    <i name="e_wo_entrp">    -12.08974092 </i>
    <i name="e_0_energy">    -12.08974092 </i>
   </energy>
  </scstep>
  <scstep>
   <time name="dav">    0.14    0.14</time>
   <time name="total">    0.45    0.45</time>
   <energy>
    <i name="e_fr_energy">    -12.09388533 </i>
    <i name="e_wo_entrp">    -12.09388533 </i>
    <i name="e_0_energy">    -12.09388533 </i>
   </energy>
  </scstep>
  <scstep>
   <time name="dav">    0.15    0.15</time>
   <time name="total">    0.47    0.48</time>
   <energy>
    <i name="e_fr_energy">    -12.09471705 </i>
    <i name="e_wo_entrp">    -12.09471705 </i>
    <i name="e_0_energy">    -12.09471705 </i>
   </energy>
  </scstep>
  <scstep>
   <time name="dav">    0.09    0.09</time>
   <time name="total">    0.39    0.40</time>
   <energy>
    <i name="e_fr_energy">    -12.09619501 </i>
    <i name="e_wo_entrp">    -12.09619501 </i>
    <i name="e_0_energy">    -12.09619501 </i>
   </energy>
  </scstep>
  <scstep>
   <time name="dav">    0.13    0.13</time>
   <time name="total">    0.43    0.43</time>
   <energy>
    <i name="e_fr_energy">    -12.09769822 </i>
    <i name="e_wo_entrp">    -12.09769822 </i>
    <i name="e_0_energy">    -12.09769822 </i>
   </energy>
  </scstep>
  <scstep>
   <time name="dav">    0.13    0.13</time>
   <time name="total">    0.44    0.46</time>
   <energy>
    <i name="e_fr_energy">    -12.09846182 </i>
    <i name="e_wo_entrp">    -12.09846182 </i>
    <i name="e_0_energy">    -12.09846182 </i>
   </energy>
  </scstep>
  <scstep>
   <time name="dav">    0.14    0.14</time>
   <time name="total">    0.43    0.44</time>
   <energy>
    <i name="e_fr_energy">    -12.09887071 </i>
    <i name="e_wo_entrp">    -12.09887071 </i>
    <i name="e_0_energy">    -12.09887071 </i>
   </energy>
  </scstep>
  <scstep>
   <time name="dav">    0.13    0.13</time>
   <time name="total">    0.27    0.29</time>
   <energy>
    <i name="alphaZ">      0.03722024 </i>
    <i name="ewald">     67.38071093 </i>
    <i name="hartreedc">   -203.69495191 </i>
    <i name="XCdc">     18.31214603 </i>
    <i name="pawpsdc">    279.07050785 </i>
    <i name="pawaedc">   -279.75125218 </i>
    <i name="eentropy">     -0.00000000 </i>
    <i name="bandstr">    -65.53782442 </i>
    <i name="atom">    172.08448920 </i>
    <i name="e_fr_energy">    -12.09895426 </i>
    <i name="e_wo_entrp">    -12.09895426 </i>
    <i name="e_0_energy">    -12.09895426 </i>
   </energy>
  </scstep>
  <structure>
   <crystal>
    <varray name="basis" >
     <v>      16.00000000       0.00000000       0.00000000 </v>
     <v>       0.00000000      16.00000000       0.00000000 </v>
     <v>       0.00000000       0.00000000      16.00000000 </v>
    </varray>
    <i name="volume">   4096.00000000 </i>
    <varray name="rec_basis" >
     <v>       0.06250000       0.00000000       0.00000000 </v>
     <v>       0.00000000       0.06250000       0.00000000 </v>
     <v>       0.00000000       0.00000000       0.06250000 </v>
    </varray>
   </crystal>
   <varray name="positions" >
    <v>       0.51485159       0.43726867       0.50000000 </v>
    <v>       0.51485159       0.56273133       0.50000000 </v>
    <v>       0.48892437       0.50000000       0.50000000 </v>
   </varray>
  </structure>
  <varray name="forces" >
   <v>      -0.00200845      -0.00001889       0.00000000 </v>
   <v>      -0.00192566       0.00020717       0.00000000 </v>
   <v>       0.00393411      -0.00018828       0.00000000 </v>
  </varray>
  <varray name="stress" >
   <v>      -0.11636191       0.00006831       0.00000000 </v>
   <v>       0.00006831      -0.11211616       0.00000000 </v>
   <v>       0.00000000       0.00000000      -0.12325093 </v>
  </varray>
  <energy>
   <i name="e_fr_energy">    -12.11272492 </i>
   <i name="e_wo_entrp">    -12.11272492 </i>
   <i name="e_0_energy">     -0.00000000 </i>
  </energy>
  <time name="totalsc">    8.42    8.59</time>
  <eigenvalues>
   <array>
    <dimension dim="1">band</dimension>
    <dimension dim="2">kpoint</dimension>
    <dimension dim="3">spin</dimension>
    <field>eigene</field>
    <field>occ</field>
    <set>
     <set comment="spin 1">
      <set comment="kpoint 1">
       <r>  -16.6738    1.0000 </r>
       <r>  -11.1083    1.0000 </r>
       <r>   -6.5837    1.0000 </r>
       <r>   -5.7164    1.0000 </r>
       <r>   -0.4908    0.0000 </r>
       <r>    0.1031    0.0000 </r>
       <r>    0.3512    0.0000 </r>
       <r>    0.4061    0.0000 </r>
       <r>    0.4141    0.0000 </r>
       <r>    0.4482    0.0000 </r>
       <r>    0.4897    0.0000 </r>
       <r>    0.8404    0.0000 </r>
      </set>
     </set>
     <set comment="spin 2">
      <set comment="kpoint 1">
       <r>  -14.8416    1.0000 </r>
       <r>  -10.6141    1.0000 </r>
       <r>   -3.0399    0.0000 </r>
       <r>   -2.4474    0.0000 </r>
       <r>   -0.1613    0.0000 </r>
       <r>    0.2530    0.0000 </r>
       <r>    0.4621    0.0000 </r>
       <r>    0.4649    0.0000 </r>
       <r>    0.5070    0.0000 </r>
       <r>    0.5496    0.0000 </r>
       <r>    0.5708    0.0000 </r>
       <r>    0.9156    0.0000 </r>
      </set>
     </set>
    </set>
   </array>
  </eigenvalues>
  <separator name="orbital magnetization" >
   <v name="MAGDIPOLOUT">      0.00000000      0.00000000      0.00000000</v>
  </separator>
  <dos>
   <i name="efermi">     -5.67014117 </i>
   <total>
    <array>
     <dimension dim="1">gridpoints</dimension>
     <dimension dim="2">spin</dimension>
     <field>energy</field>
     <field>total</field>
     <field>integrated</field>
     <set>
      <set comment="spin 1">
       <r>   -17.5532     0.0000     0.0000 </r>
       <r>   -17.4887     0.0000     0.0000 </r>
       <r>   -17.4242     0.0000     0.0000 </r>
       <r>   -17.3597     0.0000     0.0000 </r>
       <r>   -17.2953     0.0000     0.0000 </r>
       <r>   -17.2308     0.0000     0.0000 </r>
       <r>   -17.1663     0.0000     0.0000 </r>
       <r>   -17.1018     0.0000     0.0000 </r>
       <r>   -17.0373     0.0000     0.0000 </r>
       <r>   -16.9728     0.0000     0.0000 </r>
       <r>   -16.9083     0.0000     0.0000 </r>
       <r>   -16.8438     0.0000     0.0000 </r>
       <r>   -16.7793     0.0000     0.0000 </r>
       <r>   -16.7148     0.0000     0.0000 </r>
       <r>   -16.6503    15.4982     0.9995 </r>
       <r>   -16.5858     0.0000     1.0000 </r>
       <r>   -16.5213     0.0000     1.0000 </r>
       <r>   -16.4568     0.0000     1.0000 </r>
       <r>   -16.3923     0.0000     1.0000 </r>
       <r>   -16.3278     0.0000     1.0000 </r>
       <r>   -16.2633     0.0000     1.0000 </r>
       <r>   -16.1989     0.0000     1.0000 </r>
       <r>   -16.1344     0.0000     1.0000 </r>
       <r>   -16.0699     0.0000     1.0000 </r>
       <r>   -16.0054     0.0000     1.0000 </r>
       <r>   -15.9409     0.0000     1.0000 </r>
       <r>   -15.8764     0.0000     1.0000 </r>
       <r>   -15.8119     0.0000     1.0000 </r>
       <r>   -15.7474     0.0000     1.0000 </r>
       <r>   -15.6829     0.0000     1.0000 </r>
       <r>   -15.6184     0.0000     1.0000 </r>
       <r>   -15.5539     0.0000     1.0000 </r>
       <r>   -15.4894     0.0000     1.0000 </r>
       <r>   -15.4249     0.0000     1.0000 </r>
       <r>   -15.3604     0.0000     1.0000 </r>
       <r>   -15.2959     0.0000     1.0000 </r>
       <r>   -15.2314     0.0000     1.0000 </r>
       <r>   -15.1669     0.0000     1.0000 </r>
       <r>   -15.1024     0.0000     1.0000 </r>
       <r>   -15.0380     0.0000     1.0000 </r>
       <r>   -14.9735     0.0000     1.0000 </r>
       <r>   -14.9090     0.0000     1.0000 </r>
       <r>   -14.8445     0.0000     1.0000 </r>
       <r>   -14.7800     0.0000     1.0000 </r>
       <r>   -14.7155     0.0000     1.0000 </r>
       <r>   -14.6510     0.0000     1.0000 </r>
       <r>   -14.5865     0.0000     1.0000 </r>
       <r>   -14.5220     0.0000     1.0000 </r>
       <r>   -14.4575     0.0000     1.0000 </r>
       <r>   -14.3930     0.0000     1.0000 </r>
       <r>   -14.3285     0.0000     1.0000 </r>
       <r>   -14.2640     0.0000     1.0000 </r>
       <r>   -14.1995     0.0000     1.0000 </r>
       <r>   -14.1350     0.0000     1.0000 </r>
       <r>   -14.0705     0.0000     1.0000 </r>
       <r>   -14.0060     0.0000     1.0000 </r>
       <r>   -13.9415     0.0000     1.0000 </r>
       <r>   -13.8771     0.0000     1.0000 </r>
       <r>   -13.8126     0.0000     1.0000 </r>
       <r>   -13.7481     0.0000     1.0000 </r>
       <r>   -13.6836     0.0000     1.0000 </r>
       <r>   -13.6191     0.0000     1.0000 </r>
       <r>   -13.5546     0.0000     1.0000 </r>
       <r>   -13.4901     0.0000     1.0000 </r>
       <r>   -13.4256     0.0000     1.0000 </r>
       <r>   -13.3611     0.0000     1.0000 </r>
       <r>   -13.2966     0.0000     1.0000 </r>
       <r>   -13.2321     0.0000     1.0000 </r>
       <r>   -13.1676     0.0000     1.0000 </r>
       <r>   -13.1031     0.0000     1.0000 </r>
       <r>   -13.0386     0.0000     1.0000 </r>
       <r>   -12.9741     0.0000     1.0000 </r>
       <r>   -12.9096     0.0000     1.0000 </r>
       <r>   -12.8451     0.0000     1.0000 </r>
       <r>   -12.7806     0.0000     1.0000 </r>
       <r>   -12.7162     0.0000     1.0000 </r>
       <r>   -12.6517     0.0000     1.0000 </r>
       <r>   -12.5872     0.0000     1.0000 </r>
       <r>   -12.5227     0.0000     1.0000 </r>
       <r>   -12.4582     0.0000     1.0000 </r>
       <r>   -12.3937     0.0000     1.0000 </r>
       <r>   -12.3292     0.0000     1.0000 </r>
       <r>   -12.2647     0.0000     1.0000 </r>
       <r>   -12.2002     0.0000     1.0000 </r>
       <r>   -12.1357     0.0000     1.0000 </r>
       <r>   -12.0712     0.0000     1.0000 </r>
       <r>   -12.0067     0.0000     1.0000 </r>
       <r>   -11.9422     0.0000     1.0000 </r>
       <r>   -11.8777     0.0000     1.0000 </r>
       <r>   -11.8132     0.0000     1.0000 </r>
       <r>   -11.7487     0.0000     1.0000 </r>
       <r>   -11.6842     0.0000     1.0000 </r>
       <r>   -11.6197     0.0000     1.0000 </r>
       <r>   -11.5553     0.0000     1.0000 </r>
       <r>   -11.4908     0.0000     1.0000 </r>
       <r>   -11.4263     0.0000     1.0000 </r>
       <r>   -11.3618     0.0000     1.0000 </r>
       <r>   -11.2973     0.0000     1.0000 </r>
       <r>   -11.2328     0.0000     1.0000 </r>
       <r>   -11.1683     0.0000     1.0000 </r>
       <r>   -11.1038    11.4365     1.7376 </r>
       <r>   -11.0393     4.0687     2.0000 </r>
       <r>   -10.9748     0.0000     2.0000 </r>
       <r>   -10.9103     0.0000     2.0000 </r>
       <r>   -10.8458     0.0000     2.0000 </r>
       <r>   -10.7813     0.0000     2.0000 </r>
       <r>   -10.7168     0.0000     2.0000 </r>
       <r>   -10.6523     0.0000     2.0000 </r>
       <r>   -10.5878     0.0000     2.0000 </r>
       <r>   -10.5233     0.0000     2.0000 </r>
       <r>   -10.4588     0.0000     2.0000 </r>
       <r>   -10.3944     0.0000     2.0000 </r>
       <r>   -10.3299     0.0000     2.0000 </r>
       <r>   -10.2654     0.0000     2.0000 </r>
       <r>   -10.2009     0.0000     2.0000 </r>
       <r>   -10.1364     0.0000     2.0000 </r>
       <r>   -10.0719     0.0000     2.0000 </r>
       <r>   -10.0074     0.0000     2.0000 </r>
       <r>    -9.9429     0.0000     2.0000 </r>
       <r>    -9.8784     0.0000     2.0000 </r>
       <r>    -9.8139     0.0000     2.0000 </r>
       <r>    -9.7494     0.0000     2.0000 </r>
       <r>    -9.6849     0.0000     2.0000 </r>
       <r>    -9.6204     0.0000     2.0000 </r>
       <r>    -9.5559     0.0000     2.0000 </r>
       <r>    -9.4914     0.0000     2.0000 </r>
       <r>    -9.4269     0.0000     2.0000 </r>
       <r>    -9.3624     0.0000     2.0000 </r>
       <r>    -9.2980     0.0000     2.0000 </r>
       <r>    -9.2335     0.0000     2.0000 </r>
       <r>    -9.1690     0.0000     2.0000 </r>
       <r>    -9.1045     0.0000     2.0000 </r>
       <r>    -9.0400     0.0000     2.0000 </r>
       <r>    -8.9755     0.0000     2.0000 </r>
       <r>    -8.9110     0.0000     2.0000 </r>
       <r>    -8.8465     0.0000     2.0000 </r>
       <r>    -8.7820     0.0000     2.0000 </r>
       <r>    -8.7175     0.0000     2.0000 </r>
       <r>    -8.6530     0.0000     2.0000 </r>
       <r>    -8.5885     0.0000     2.0000 </r>
       <r>    -8.5240     0.0000     2.0000 </r>
       <r>    -8.4595     0.0000     2.0000 </r>
       <r>    -8.3950     0.0000     2.0000 </r>
       <r>    -8.3305     0.0000     2.0000 </r>
       <r>    -8.2660     0.0000     2.0000 </r>
       <r>    -8.2015     0.0000     2.0000 </r>
       <r>    -8.1371     0.0000     2.0000 </r>
       <r>    -8.0726     0.0000     2.0000 </r>
       <r>    -8.0081     0.0000     2.0000 </r>
       <r>    -7.9436     0.0000     2.0000 </r>
       <r>    -7.8791     0.0000     2.0000 </r>
       <r>    -7.8146     0.0000     2.0000 </r>
       <r>    -7.7501     0.0000     2.0000 </r>
       <r>    -7.6856     0.0000     2.0000 </r>
       <r>    -7.6211     0.0000     2.0000 </r>
       <r>    -7.5566     0.0000     2.0000 </r>
       <r>    -7.4921     0.0000     2.0000 </r>
       <r>    -7.4276     0.0000     2.0000 </r>
       <r>    -7.3631     0.0000     2.0000 </r>
       <r>    -7.2986     0.0000     2.0000 </r>
       <r>    -7.2341     0.0000     2.0000 </r>
       <r>    -7.1696     0.0000     2.0000 </r>
       <r>    -7.1051     0.0000     2.0000 </r>
       <r>    -7.0406     0.0000     2.0000 </r>
       <r>    -6.9762     0.0000     2.0000 </r>
       <r>    -6.9117     0.0000     2.0000 </r>
       <r>    -6.8472     0.0000     2.0000 </r>
       <r>    -6.7827     0.0000     2.0000 </r>
       <r>    -6.7182     0.0000     2.0000 </r>
       <r>    -6.6537     0.0000     2.0000 </r>
       <r>    -6.5892     3.3883     2.2185 </r>
       <r>    -6.5247    12.1169     3.0000 </r>
       <r>    -6.4602     0.0000     3.0000 </r>
       <r>    -6.3957     0.0000     3.0000 </r>
       <r>    -6.3312     0.0000     3.0000 </r>
       <r>    -6.2667     0.0000     3.0000 </r>
       <r>    -6.2022     0.0000     3.0000 </r>
       <r>    -6.1377     0.0000     3.0000 </r>
       <r>    -6.0732     0.0000     3.0000 </r>
       <r>    -6.0087     0.0000     3.0000 </r>
       <r>    -5.9442     0.0000     3.0000 </r>
       <r>    -5.8797     0.0000     3.0000 </r>
       <r>    -5.8153     0.0000     3.0000 </r>
       <r>    -5.7508     0.0000     3.0000 </r>
       <r>    -5.6863    15.5051     4.0000 </r>
       <r>    -5.6218     0.0000     4.0000 </r>
       <r>    -5.5573     0.0000     4.0000 </r>
       <r>    -5.4928     0.0000     4.0000 </r>
       <r>    -5.4283     0.0000     4.0000 </r>
       <r>    -5.3638     0.0000     4.0000 </r>
       <r>    -5.2993     0.0000     4.0000 </r>
       <r>    -5.2348     0.0000     4.0000 </r>
       <r>    -5.1703     0.0000     4.0000 </r>
       <r>    -5.1058     0.0000     4.0000 </r>
       <r>    -5.0413     0.0000     4.0000 </r>
       <r>    -4.9768     0.0000     4.0000 </r>
       <r>    -4.9123     0.0000     4.0000 </r>
       <r>    -4.8478     0.0000     4.0000 </r>
       <r>    -4.7833     0.0000     4.0000 </r>
       <r>    -4.7188     0.0000     4.0000 </r>
       <r>    -4.6544     0.0000     4.0000 </r>
       <r>    -4.5899     0.0000     4.0000 </r>
       <r>    -4.5254     0.0000     4.0000 </r>
       <r>    -4.4609     0.0000     4.0000 </r>
       <r>    -4.3964     0.0000     4.0000 </r>
       <r>    -4.3319     0.0000     4.0000 </r>
       <r>    -4.2674     0.0000     4.0000 </r>
       <r>    -4.2029     0.0000     4.0000 </r>
       <r>    -4.1384     0.0000     4.0000 </r>
       <r>    -4.0739     0.0000     4.0000 </r>
       <r>    -4.0094     0.0000     4.0000 </r>
       <r>    -3.9449     0.0000     4.0000 </r>
       <r>    -3.8804     0.0000     4.0000 </r>
       <r>    -3.8159     0.0000     4.0000 </r>
       <r>    -3.7514     0.0000     4.0000 </r>
       <r>    -3.6869     0.0000     4.0000 </r>
       <r>    -3.6224     0.0000     4.0000 </r>
       <r>    -3.5579     0.0000     4.0000 </r>
       <r>    -3.4935     0.0000     4.0000 </r>
       <r>    -3.4290     0.0000     4.0000 </r>
       <r>    -3.3645     0.0000     4.0000 </r>
       <r>    -3.3000     0.0000     4.0000 </r>
       <r>    -3.2355     0.0000     4.0000 </r>
       <r>    -3.1710     0.0000     4.0000 </r>
       <r>    -3.1065     0.0000     4.0000 </r>
       <r>    -3.0420     0.0000     4.0000 </r>
       <r>    -2.9775     0.0000     4.0000 </r>
       <r>    -2.9130     0.0000     4.0000 </r>
       <r>    -2.8485     0.0000     4.0000 </r>
       <r>    -2.7840     0.0000     4.0000 </r>
       <r>    -2.7195     0.0000     4.0000 </r>
       <r>    -2.6550     0.0000     4.0000 </r>
       <r>    -2.5905     0.0000     4.0000 </r>
       <r>    -2.5260     0.0000     4.0000 </r>
       <r>    -2.4615     0.0000     4.0000 </r>
       <r>    -2.3971     0.0000     4.0000 </r>
       <r>    -2.3326     0.0000     4.0000 </r>
       <r>    -2.2681     0.0000     4.0000 </r>
       <r>    -2.2036     0.0000     4.0000 </r>
       <r>    -2.1391     0.0000     4.0000 </r>
       <r>    -2.0746     0.0000     4.0000 </r>
       <r>    -2.0101     0.0000     4.0000 </r>
       <r>    -1.9456     0.0000     4.0000 </r>
       <r>    -1.8811     0.0000     4.0000 </r>
       <r>    -1.8166     0.0000     4.0000 </r>
       <r>    -1.7521     0.0000     4.0000 </r>
       <r>    -1.6876     0.0000     4.0000 </r>
       <r>    -1.6231     0.0000     4.0000 </r>
       <r>    -1.5586     0.0000     4.0000 </r>
       <r>    -1.4941     0.0000     4.0000 </r>
       <r>    -1.4296     0.0000     4.0000 </r>
       <r>    -1.3651     0.0000     4.0000 </r>
       <r>    -1.3006     0.0000     4.0000 </r>
       <r>    -1.2362     0.0000     4.0000 </r>
       <r>    -1.1717     0.0000     4.0000 </r>
       <r>    -1.1072     0.0000     4.0000 </r>
       <r>    -1.0427     0.0000     4.0000 </r>
       <r>    -0.9782     0.0000     4.0000 </r>
       <r>    -0.9137     0.0000     4.0000 </r>
       <r>    -0.8492     0.0000     4.0000 </r>
       <r>    -0.7847     0.0000     4.0000 </r>
       <r>    -0.7202     0.0000     4.0000 </r>
       <r>    -0.6557     0.0000     4.0000 </r>
       <r>    -0.5912     0.0000     4.0000 </r>
       <r>    -0.5267     0.0000     4.0000 </r>
       <r>    -0.4622    15.5048     5.0000 </r>
       <r>    -0.3977     0.0000     5.0000 </r>
       <r>    -0.3332     0.0000     5.0000 </r>
       <r>    -0.2687     0.0000     5.0000 </r>
       <r>    -0.2042     0.0000     5.0000 </r>
       <r>    -0.1397     0.0000     5.0000 </r>
       <r>    -0.0753     0.0000     5.0000 </r>
       <r>    -0.0108     0.0000     5.0000 </r>
       <r>     0.0537     0.0000     5.0000 </r>
       <r>     0.1182    15.2574     5.9840 </r>
       <r>     0.1827     0.2479     6.0000 </r>
       <r>     0.2472     0.0000     6.0000 </r>
       <r>     0.3117     0.0000     6.0000 </r>
       <r>     0.3762    15.5022     6.9998 </r>
       <r>     0.4407    33.2505     9.1445 </r>
       <r>     0.5052    28.5514    10.9860 </r>
       <r>     0.5697     0.0000    11.0000 </r>
       <r>     0.6342     0.0000    11.0000 </r>
       <r>     0.6987     0.0000    11.0000 </r>
       <r>     0.7632     0.0000    11.0000 </r>
       <r>     0.8277     0.5595    11.0361 </r>
       <r>     0.8922    14.9457    12.0000 </r>
       <r>     0.9567     0.0000    12.0000 </r>
       <r>     1.0212     0.0000    12.0000 </r>
       <r>     1.0856     0.0000    12.0000 </r>
       <r>     1.1501     0.0000    12.0000 </r>
       <r>     1.2146     0.0000    12.0000 </r>
       <r>     1.2791     0.0000    12.0000 </r>
       <r>     1.3436     0.0000    12.0000 </r>
       <r>     1.4081     0.0000    12.0000 </r>
       <r>     1.4726     0.0000    12.0000 </r>
       <r>     1.5371     0.0000    12.0000 </r>
       <r>     1.6016     0.0000    12.0000 </r>
       <r>     1.6661     0.0000    12.0000 </r>
       <r>     1.7306     0.0000    12.0000 </r>
       <r>     1.7951     0.0000    12.0000 </r>
      </set>
      <set comment="spin 2">
       <r>   -17.5532     0.0000     0.0000 </r>
       <r>   -17.4887     0.0000     0.0000 </r>
       <r>   -17.4242     0.0000     0.0000 </r>
       <r>   -17.3597     0.0000     0.0000 </r>
       <r>   -17.2953     0.0000     0.0000 </r>
       <r>   -17.2308     0.0000     0.0000 </r>
       <r>   -17.1663     0.0000     0.0000 </r>
       <r>   -17.1018     0.0000     0.0000 </r>
       <r>   -17.0373     0.0000     0.0000 </r>
       <r>   -16.9728     0.0000     0.0000 </r>
       <r>   -16.9083     0.0000     0.0000 </r>
       <r>   -16.8438     0.0000     0.0000 </r>
       <r>   -16.7793     0.0000     0.0000 </r>
       <r>   -16.7148     0.0000     0.0000 </r>
       <r>   -16.6503     0.0000     0.0000 </r>
       <r>   -16.5858     0.0000     0.0000 </r>
       <r>   -16.5213     0.0000     0.0000 </r>
       <r>   -16.4568     0.0000     0.0000 </r>
       <r>   -16.3923     0.0000     0.0000 </r>
       <r>   -16.3278     0.0000     0.0000 </r>
       <r>   -16.2633     0.0000     0.0000 </r>
       <r>   -16.1989     0.0000     0.0000 </r>
       <r>   -16.1344     0.0000     0.0000 </r>
       <r>   -16.0699     0.0000     0.0000 </r>
       <r>   -16.0054     0.0000     0.0000 </r>
       <r>   -15.9409     0.0000     0.0000 </r>
       <r>   -15.8764     0.0000     0.0000 </r>
       <r>   -15.8119     0.0000     0.0000 </r>
       <r>   -15.7474     0.0000     0.0000 </r>
       <r>   -15.6829     0.0000     0.0000 </r>
       <r>   -15.6184     0.0000     0.0000 </r>
       <r>   -15.5539     0.0000     0.0000 </r>
       <r>   -15.4894     0.0000     0.0000 </r>
       <r>   -15.4249     0.0000     0.0000 </r>
       <r>   -15.3604     0.0000     0.0000 </r>
       <r>   -15.2959     0.0000     0.0000 </r>
       <r>   -15.2314     0.0000     0.0000 </r>
       <r>   -15.1669     0.0000     0.0000 </r>
       <r>   -15.1024     0.0000     0.0000 </r>
       <r>   -15.0380     0.0000     0.0000 </r>
       <r>   -14.9735     0.0000     0.0000 </r>
       <r>   -14.9090     0.0000     0.0000 </r>
       <r>   -14.8445     5.2764     0.3403 </r>
       <r>   -14.7800    10.2288     1.0000 </r>
       <r>   -14.7155     0.0000     1.0000 </r>
       <r>   -14.6510     0.0000     1.0000 </r>
       <r>   -14.5865     0.0000     1.0000 </r>
       <r>   -14.5220     0.0000     1.0000 </r>
       <r>   -14.4575     0.0000     1.0000 </r>
       <r>   -14.3930     0.0000     1.0000 </r>
       <r>   -14.3285     0.0000     1.0000 </r>
       <r>   -14.2640     0.0000     1.0000 </r>
       <r>   -14.1995     0.0000     1.0000 </r>
       <r>   -14.1350     0.0000     1.0000 </r>
       <r>   -14.0705     0.0000     1.0000 </r>
       <r>   -14.0060     0.0000     1.0000 </r>
       <r>   -13.9415     0.0000     1.0000 </r>
       <r>   -13.8771     0.0000     1.0000 </r>
       <r>   -13.8126     0.0000     1.0000 </r>
       <r>   -13.7481     0.0000     1.0000 </r>
       <r>   -13.6836     0.0000     1.0000 </r>
       <r>   -13.6191     0.0000     1.0000 </r>
       <r>   -13.5546     0.0000     1.0000 </r>
       <r>   -13.4901     0.0000     1.0000 </r>
       <r>   -13.4256     0.0000     1.0000 </r>
       <r>   -13.3611     0.0000     1.0000 </r>
       <r>   -13.2966     0.0000     1.0000 </r>
       <r>   -13.2321     0.0000     1.0000 </r>
       <r>   -13.1676     0.0000     1.0000 </r>
       <r>   -13.1031     0.0000     1.0000 </r>
       <r>   -13.0386     0.0000     1.0000 </r>
       <r>   -12.9741     0.0000     1.0000 </r>
       <r>   -12.9096     0.0000     1.0000 </r>
       <r>   -12.8451     0.0000     1.0000 </r>
       <r>   -12.7806     0.0000     1.0000 </r>
       <r>   -12.7162     0.0000     1.0000 </r>
       <r>   -12.6517     0.0000     1.0000 </r>
       <r>   -12.5872     0.0000     1.0000 </r>
       <r>   -12.5227     0.0000     1.0000 </r>
       <r>   -12.4582     0.0000     1.0000 </r>
       <r>   -12.3937     0.0000     1.0000 </r>
       <r>   -12.3292     0.0000     1.0000 </r>
       <r>   -12.2647     0.0000     1.0000 </r>
       <r>   -12.2002     0.0000     1.0000 </r>
       <r>   -12.1357     0.0000     1.0000 </r>
       <r>   -12.0712     0.0000     1.0000 </r>
       <r>   -12.0067     0.0000     1.0000 </r>
       <r>   -11.9422     0.0000     1.0000 </r>
       <r>   -11.8777     0.0000     1.0000 </r>
       <r>   -11.8132     0.0000     1.0000 </r>
       <r>   -11.7487     0.0000     1.0000 </r>
       <r>   -11.6842     0.0000     1.0000 </r>
       <r>   -11.6197     0.0000     1.0000 </r>
       <r>   -11.5553     0.0000     1.0000 </r>
       <r>   -11.4908     0.0000     1.0000 </r>
       <r>   -11.4263     0.0000     1.0000 </r>
       <r>   -11.3618     0.0000     1.0000 </r>
       <r>   -11.2973     0.0000     1.0000 </r>
       <r>   -11.2328     0.0000     1.0000 </r>
       <r>   -11.1683     0.0000     1.0000 </r>
       <r>   -11.1038     0.0000     1.0000 </r>
       <r>   -11.0393     0.0000     1.0000 </r>
       <r>   -10.9748     0.0000     1.0000 </r>
       <r>   -10.9103     0.0000     1.0000 </r>
       <r>   -10.8458     0.0000     1.0000 </r>
       <r>   -10.7813     0.0000     1.0000 </r>
       <r>   -10.7168     0.0000     1.0000 </r>
       <r>   -10.6523     0.0000     1.0000 </r>
       <r>   -10.5878    15.5037     1.9999 </r>
       <r>   -10.5233     0.0000     2.0000 </r>
       <r>   -10.4588     0.0000     2.0000 </r>
       <r>   -10.3944     0.0000     2.0000 </r>
       <r>   -10.3299     0.0000     2.0000 </r>
       <r>   -10.2654     0.0000     2.0000 </r>
       <r>   -10.2009     0.0000     2.0000 </r>
       <r>   -10.1364     0.0000     2.0000 </r>
       <r>   -10.0719     0.0000     2.0000 </r>
       <r>   -10.0074     0.0000     2.0000 </r>
       <r>    -9.9429     0.0000     2.0000 </r>
       <r>    -9.8784     0.0000     2.0000 </r>
       <r>    -9.8139     0.0000     2.0000 </r>
       <r>    -9.7494     0.0000     2.0000 </r>
       <r>    -9.6849     0.0000     2.0000 </r>
       <r>    -9.6204     0.0000     2.0000 </r>
       <r>    -9.5559     0.0000     2.0000 </r>
       <r>    -9.4914     0.0000     2.0000 </r>
       <r>    -9.4269     0.0000     2.0000 </r>
       <r>    -9.3624     0.0000     2.0000 </r>
       <r>    -9.2980     0.0000     2.0000 </r>
       <r>    -9.2335     0.0000     2.0000 </r>
       <r>    -9.1690     0.0000     2.0000 </r>
       <r>    -9.1045     0.0000     2.0000 </r>
       <r>    -9.0400     0.0000     2.0000 </r>
       <r>    -8.9755     0.0000     2.0000 </r>
       <r>    -8.9110     0.0000     2.0000 </r>
       <r>    -8.8465     0.0000     2.0000 </r>
       <r>    -8.7820     0.0000     2.0000 </r>
       <r>    -8.7175     0.0000     2.0000 </r>
       <r>    -8.6530     0.0000     2.0000 </r>
       <r>    -8.5885     0.0000     2.0000 </r>
       <r>    -8.5240     0.0000     2.0000 </r>
       <r>    -8.4595     0.0000     2.0000 </r>
       <r>    -8.3950     0.0000     2.0000 </r>
       <r>    -8.3305     0.0000     2.0000 </r>
       <r>    -8.2660     0.0000     2.0000 </r>
       <r>    -8.2015     0.0000     2.0000 </r>
       <r>    -8.1371     0.0000     2.0000 </r>
       <r>    -8.0726     0.0000     2.0000 </r>
       <r>    -8.0081     0.0000     2.0000 </r>
       <r>    -7.9436     0.0000     2.0000 </r>
       <r>    -7.8791     0.0000     2.0000 </r>
       <r>    -7.8146     0.0000     2.0000 </r>
       <r>    -7.7501     0.0000     2.0000 </r>
       <r>    -7.6856     0.0000     2.0000 </r>
       <r>    -7.6211     0.0000     2.0000 </r>
       <r>    -7.5566     0.0000     2.0000 </r>
       <r>    -7.4921     0.0000     2.0000 </r>
       <r>    -7.4276     0.0000     2.0000 </r>
       <r>    -7.3631     0.0000     2.0000 </r>
       <r>    -7.2986     0.0000     2.0000 </r>
       <r>    -7.2341     0.0000     2.0000 </r>
       <r>    -7.1696     0.0000     2.0000 </r>
       <r>    -7.1051     0.0000     2.0000 </r>
       <r>    -7.0406     0.0000     2.0000 </r>
       <r>    -6.9762     0.0000     2.0000 </r>
       <r>    -6.9117     0.0000     2.0000 </r>
       <r>    -6.8472     0.0000     2.0000 </r>
       <r>    -6.7827     0.0000     2.0000 </r>
       <r>    -6.7182     0.0000     2.0000 </r>
       <r>    -6.6537     0.0000     2.0000 </r>
       <r>    -6.5892     0.0000     2.0000 </r>
       <r>    -6.5247     0.0000     2.0000 </r>
       <r>    -6.4602     0.0000     2.0000 </r>
       <r>    -6.3957     0.0000     2.0000 </r>
       <r>    -6.3312     0.0000     2.0000 </r>
       <r>    -6.2667     0.0000     2.0000 </r>
       <r>    -6.2022     0.0000     2.0000 </r>
       <r>    -6.1377     0.0000     2.0000 </r>
       <r>    -6.0732     0.0000     2.0000 </r>
       <r>    -6.0087     0.0000     2.0000 </r>
       <r>    -5.9442     0.0000     2.0000 </r>
       <r>    -5.8797     0.0000     2.0000 </r>
       <r>    -5.8153     0.0000     2.0000 </r>
       <r>    -5.7508     0.0000     2.0000 </r>
       <r>    -5.6863     0.0000     2.0000 </r>
       <r>    -5.6218     0.0000     2.0000 </r>
       <r>    -5.5573     0.0000     2.0000 </r>
       <r>    -5.4928     0.0000     2.0000 </r>
       <r>    -5.4283     0.0000     2.0000 </r>
       <r>    -5.3638     0.0000     2.0000 </r>
       <r>    -5.2993     0.0000     2.0000 </r>
       <r>    -5.2348     0.0000     2.0000 </r>
       <r>    -5.1703     0.0000     2.0000 </r>
       <r>    -5.1058     0.0000     2.0000 </r>
       <r>    -5.0413     0.0000     2.0000 </r>
       <r>    -4.9768     0.0000     2.0000 </r>
       <r>    -4.9123     0.0000     2.0000 </r>
       <r>    -4.8478     0.0000     2.0000 </r>
       <r>    -4.7833     0.0000     2.0000 </r>
       <r>    -4.7188     0.0000     2.0000 </r>
       <r>    -4.6544     0.0000     2.0000 </r>
       <r>    -4.5899     0.0000     2.0000 </r>
       <r>    -4.5254     0.0000     2.0000 </r>
       <r>    -4.4609     0.0000     2.0000 </r>
       <r>    -4.3964     0.0000     2.0000 </r>
       <r>    -4.3319     0.0000     2.0000 </r>
       <r>    -4.2674     0.0000     2.0000 </r>
       <r>    -4.2029     0.0000     2.0000 </r>
       <r>    -4.1384     0.0000     2.0000 </r>
       <r>    -4.0739     0.0000     2.0000 </r>
       <r>    -4.0094     0.0000     2.0000 </r>
       <r>    -3.9449     0.0000     2.0000 </r>
       <r>    -3.8804     0.0000     2.0000 </r>
       <r>    -3.8159     0.0000     2.0000 </r>
       <r>    -3.7514     0.0000     2.0000 </r>
       <r>    -3.6869     0.0000     2.0000 </r>
       <r>    -3.6224     0.0000     2.0000 </r>
       <r>    -3.5579     0.0000     2.0000 </r>
       <r>    -3.4935     0.0000     2.0000 </r>
       <r>    -3.4290     0.0000     2.0000 </r>
       <r>    -3.3645     0.0000     2.0000 </r>
       <r>    -3.3000     0.0000     2.0000 </r>
       <r>    -3.2355     0.0000     2.0000 </r>
       <r>    -3.1710     0.0000     2.0000 </r>
       <r>    -3.1065     0.0000     2.0000 </r>
       <r>    -3.0420     5.9169     2.3816 </r>
       <r>    -2.9775     9.5883     3.0000 </r>
       <r>    -2.9130     0.0000     3.0000 </r>
       <r>    -2.8485     0.0000     3.0000 </r>
       <r>    -2.7840     0.0000     3.0000 </r>
       <r>    -2.7195     0.0000     3.0000 </r>
       <r>    -2.6550     0.0000     3.0000 </r>
       <r>    -2.5905     0.0000     3.0000 </r>
       <r>    -2.5260     0.0000     3.0000 </r>
       <r>    -2.4615     0.3514     3.0227 </r>
       <r>    -2.3971    15.1538     4.0000 </r>
       <r>    -2.3326     0.0000     4.0000 </r>
       <r>    -2.2681     0.0000     4.0000 </r>
       <r>    -2.2036     0.0000     4.0000 </r>
       <r>    -2.1391     0.0000     4.0000 </r>
       <r>    -2.0746     0.0000     4.0000 </r>
       <r>    -2.0101     0.0000     4.0000 </r>
       <r>    -1.9456     0.0000     4.0000 </r>
       <r>    -1.8811     0.0000     4.0000 </r>
       <r>    -1.8166     0.0000     4.0000 </r>
       <r>    -1.7521     0.0000     4.0000 </r>
       <r>    -1.6876     0.0000     4.0000 </r>
       <r>    -1.6231     0.0000     4.0000 </r>
       <r>    -1.5586     0.0000     4.0000 </r>
       <r>    -1.4941     0.0000     4.0000 </r>
       <r>    -1.4296     0.0000     4.0000 </r>
       <r>    -1.3651     0.0000     4.0000 </r>
       <r>    -1.3006     0.0000     4.0000 </r>
       <r>    -1.2362     0.0000     4.0000 </r>
       <r>    -1.1717     0.0000     4.0000 </r>
       <r>    -1.1072     0.0000     4.0000 </r>
       <r>    -1.0427     0.0000     4.0000 </r>
       <r>    -0.9782     0.0000     4.0000 </r>
       <r>    -0.9137     0.0000     4.0000 </r>
       <r>    -0.8492     0.0000     4.0000 </r>
       <r>    -0.7847     0.0000     4.0000 </r>
       <r>    -0.7202     0.0000     4.0000 </r>
       <r>    -0.6557     0.0000     4.0000 </r>
       <r>    -0.5912     0.0000     4.0000 </r>
       <r>    -0.5267     0.0000     4.0000 </r>
       <r>    -0.4622     0.0000     4.0000 </r>
       <r>    -0.3977     0.0000     4.0000 </r>
       <r>    -0.3332     0.0000     4.0000 </r>
       <r>    -0.2687     0.0000     4.0000 </r>
       <r>    -0.2042     0.0000     4.0000 </r>
       <r>    -0.1397    15.4876     4.9989 </r>
       <r>    -0.0753     0.0000     5.0000 </r>
       <r>    -0.0108     0.0000     5.0000 </r>
       <r>     0.0537     0.0000     5.0000 </r>
       <r>     0.1182     0.0000     5.0000 </r>
       <r>     0.1827     0.0000     5.0000 </r>
       <r>     0.2472     3.1775     5.2049 </r>
       <r>     0.3117    12.3277     6.0000 </r>
       <r>     0.3762     0.0000     6.0000 </r>
       <r>     0.4407     0.0240     6.0016 </r>
       <r>     0.5052    37.1560     8.3979 </r>
       <r>     0.5697    31.5829    10.4348 </r>
       <r>     0.6342     8.7281    11.0000 </r>
       <r>     0.6987     0.0000    11.0000 </r>
       <r>     0.7632     0.0000    11.0000 </r>
       <r>     0.8277     0.0000    11.0000 </r>
       <r>     0.8922     0.0071    11.0005 </r>
       <r>     0.9567    15.4982    12.0000 </r>
       <r>     1.0212     0.0000    12.0000 </r>
       <r>     1.0856     0.0000    12.0000 </r>
       <r>     1.1501     0.0000    12.0000 </r>
       <r>     1.2146     0.0000    12.0000 </r>
       <r>     1.2791     0.0000    12.0000 </r>
       <r>     1.3436     0.0000    12.0000 </r>
       <r>     1.4081     0.0000    12.0000 </r>
       <r>     1.4726     0.0000    12.0000 </r>
       <r>     1.5371     0.0000    12.0000 </r>
       <r>     1.6016     0.0000    12.0000 </r>
       <r>     1.6661     0.0000    12.0000 </r>
       <r>     1.7306     0.0000    12.0000 </r>
       <r>     1.7951     0.0000    12.0000 </r>
      </set>
     </set>
    </array>
   </total>
   <partial>
    <array>
     <dimension dim="1">gridpoints</dimension>
     <dimension dim="2">spin</dimension>
     <dimension dim="3">ion</dimension>
     <field>energy</field>
     <field>  s</field>
     <field> py</field>
     <field> pz</field>
     <field> px</field>
     <field>dxy</field>
     <field>dyz</field>
     <field>dz2</field>
     <field>dxz</field>
     <field>dx2</field>
     <set>
      <set comment="ion 1">
       <set comment="spin 1">
        <r>   -17.5532     0.0000     0.0000     0.0000     0.0000     0.0000     0.0000     0.0000     0.0000     0.0000 </r>
        <r>   -17.4887     0.0000     0.0000     0.0000     0.0000     0.0000     0.0000     0.0000     0.0000     0.0000 </r>
        <r>   -17.4242     0.0000     0.0000     0.0000     0.0000     0.0000     0.0000     0.0000     0.0000     0.0000 </r>
        <r>   -17.3597     0.0000     0.0000     0.0000     0.0000     0.0000     0.0000     0.0000     0.0000     0.0000 </r>
        <r>   -17.2953     0.0000     0.0000     0.0000     0.0000     0.0000     0.0000     0.0000     0.0000     0.0000 </r>
        <r>   -17.2308     0.0000     0.0000     0.0000     0.0000     0.0000     0.0000     0.0000     0.0000     0.0000 </r>
        <r>   -17.1663     0.0000     0.0000     0.0000     0.0000     0.0000     0.0000     0.0000     0.0000     0.0000 </r>
        <r>   -17.1018     0.0000     0.0000     0.0000     0.0000     0.0000     0.0000     0.0000     0.0000     0.0000 </r>
        <r>   -17.0373     0.0000     0.0000     0.0000     0.0000     0.0000     0.0000     0.0000     0.0000     0.0000 </r>
        <r>   -16.9728     0.0000     0.0000     0.0000     0.0000     0.0000     0.0000     0.0000     0.0000     0.0000 </r>
        <r>   -16.9083     0.0000     0.0000     0.0000     0.0000     0.0000     0.0000     0.0000     0.0000     0.0000 </r>
        <r>   -16.8438     0.0000     0.0000     0.0000     0.0000     0.0000     0.0000     0.0000     0.0000     0.0000 </r>
        <r>   -16.7793     0.0000     0.0000     0.0000     0.0000     0.0000     0.0000     0.0000     0.0000     0.0000 </r>
        <r>   -16.7148     0.0000     0.0000     0.0000     0.0000     0.0000     0.0000     0.0000     0.0000     0.0000 </r>
        <r>   -16.6503     1.5635     0.1248     0.0000     0.0142     0.0000     0.0000     0.0000     0.0000     0.0000 </r>
        <r>   -16.5858     0.0000     0.0000     0.0000     0.0000     0.0000     0.0000     0.0000     0.0000     0.0000 </r>
        <r>   -16.5213     0.0000     0.0000     0.0000     0.0000     0.0000     0.0000     0.0000     0.0000     0.0000 </r>
        <r>   -16.4568     0.0000     0.0000     0.0000     0.0000     0.0000     0.0000     0.0000     0.0000     0.0000 </r>
        <r>   -16.3923     0.0000     0.0000     0.0000     0.0000     0.0000     0.0000     0.0000     0.0000     0.0000 </r>
        <r>   -16.3278     0.0000     0.0000     0.0000     0.0000     0.0000     0.0000     0.0000     0.0000     0.0000 </r>
        <r>   -16.2633     0.0000     0.0000     0.0000     0.0000     0.0000     0.0000     0.0000     0.0000     0.0000 </r>
        <r>   -16.1989     0.0000     0.0000     0.0000     0.0000     0.0000     0.0000     0.0000     0.0000     0.0000 </r>
        <r>   -16.1344     0.0000     0.0000     0.0000     0.0000     0.0000     0.0000     0.0000     0.0000     0.0000 </r>
        <r>   -16.0699     0.0000     0.0000     0.0000     0.0000     0.0000     0.0000     0.0000     0.0000     0.0000 </r>
        <r>   -16.0054     0.0000     0.0000     0.0000     0.0000     0.0000     0.0000     0.0000     0.0000     0.0000 </r>
        <r>   -15.9409     0.0000     0.0000     0.0000     0.0000     0.0000     0.0000     0.0000     0.0000     0.0000 </r>
        <r>   -15.8764     0.0000     0.0000     0.0000     0.0000     0.0000     0.0000     0.0000     0.0000     0.0000 </r>
        <r>   -15.8119     0.0000     0.0000     0.0000     0.0000     0.0000     0.0000     0.0000     0.0000     0.0000 </r>
        <r>   -15.7474     0.0000     0.0000     0.0000     0.0000     0.0000     0.0000     0.0000     0.0000     0.0000 </r>
        <r>   -15.6829     0.0000     0.0000     0.0000     0.0000     0.0000     0.0000     0.0000     0.0000     0.0000 </r>
        <r>   -15.6184     0.0000     0.0000     0.0000     0.0000     0.0000     0.0000     0.0000     0.0000     0.0000 </r>
        <r>   -15.5539     0.0000     0.0000     0.0000     0.0000     0.0000     0.0000     0.0000     0.0000     0.0000 </r>
        <r>   -15.4894     0.0000     0.0000     0.0000     0.0000     0.0000     0.0000     0.0000     0.0000     0.0000 </r>
        <r>   -15.4249     0.0000     0.0000     0.0000     0.0000     0.0000     0.0000     0.0000     0.0000     0.0000 </r>
        <r>   -15.3604     0.0000     0.0000     0.0000     0.0000     0.0000     0.0000     0.0000     0.0000     0.0000 </r>
        <r>   -15.2959     0.0000     0.0000     0.0000     0.0000     0.0000     0.0000     0.0000     0.0000     0.0000 </r>
        <r>   -15.2314     0.0000     0.0000     0.0000     0.0000     0.0000     0.0000     0.0000     0.0000     0.0000 </r>
        <r>   -15.1669     0.0000     0.0000     0.0000     0.0000     0.0000     0.0000     0.0000     0.0000     0.0000 </r>
        <r>   -15.1024     0.0000     0.0000     0.0000     0.0000     0.0000     0.0000     0.0000     0.0000     0.0000 </r>
        <r>   -15.0380     0.0000     0.0000     0.0000     0.0000     0.0000     0.0000     0.0000     0.0000     0.0000 </r>
        <r>   -14.9735     0.0000     0.0000     0.0000     0.0000     0.0000     0.0000     0.0000     0.0000     0.0000 </r>
        <r>   -14.9090     0.0000     0.0000     0.0000     0.0000     0.0000     0.0000     0.0000     0.0000     0.0000 </r>
        <r>   -14.8445     0.0000     0.0000     0.0000     0.0000     0.0000     0.0000     0.0000     0.0000     0.0000 </r>
        <r>   -14.7800     0.0000     0.0000     0.0000     0.0000     0.0000     0.0000     0.0000     0.0000     0.0000 </r>
        <r>   -14.7155     0.0000     0.0000     0.0000     0.0000     0.0000     0.0000     0.0000     0.0000     0.0000 </r>
        <r>   -14.6510     0.0000     0.0000     0.0000     0.0000     0.0000     0.0000     0.0000     0.0000     0.0000 </r>
        <r>   -14.5865     0.0000     0.0000     0.0000     0.0000     0.0000     0.0000     0.0000     0.0000     0.0000 </r>
        <r>   -14.5220     0.0000     0.0000     0.0000     0.0000     0.0000     0.0000     0.0000     0.0000     0.0000 </r>
        <r>   -14.4575     0.0000     0.0000     0.0000     0.0000     0.0000     0.0000     0.0000     0.0000     0.0000 </r>
        <r>   -14.3930     0.0000     0.0000     0.0000     0.0000     0.0000     0.0000     0.0000     0.0000     0.0000 </r>
        <r>   -14.3285     0.0000     0.0000     0.0000     0.0000     0.0000     0.0000     0.0000     0.0000     0.0000 </r>
        <r>   -14.2640     0.0000     0.0000     0.0000     0.0000     0.0000     0.0000     0.0000     0.0000     0.0000 </r>
        <r>   -14.1995     0.0000     0.0000     0.0000     0.0000     0.0000     0.0000     0.0000     0.0000     0.0000 </r>
        <r>   -14.1350     0.0000     0.0000     0.0000     0.0000     0.0000     0.0000     0.0000     0.0000     0.0000 </r>
        <r>   -14.0705     0.0000     0.0000     0.0000     0.0000     0.0000     0.0000     0.0000     0.0000     0.0000 </r>
        <r>   -14.0060     0.0000     0.0000     0.0000     0.0000     0.0000     0.0000     0.0000     0.0000     0.0000 </r>
        <r>   -13.9415     0.0000     0.0000     0.0000     0.0000     0.0000     0.0000     0.0000     0.0000     0.0000 </r>
        <r>   -13.8771     0.0000     0.0000     0.0000     0.0000     0.0000     0.0000     0.0000     0.0000     0.0000 </r>
        <r>   -13.8126     0.0000     0.0000     0.0000     0.0000     0.0000     0.0000     0.0000     0.0000     0.0000 </r>
        <r>   -13.7481     0.0000     0.0000     0.0000     0.0000     0.0000     0.0000     0.0000     0.0000     0.0000 </r>
        <r>   -13.6836     0.0000     0.0000     0.0000     0.0000     0.0000     0.0000     0.0000     0.0000     0.0000 </r>
        <r>   -13.6191     0.0000     0.0000     0.0000     0.0000     0.0000     0.0000     0.0000     0.0000     0.0000 </r>
        <r>   -13.5546     0.0000     0.0000     0.0000     0.0000     0.0000     0.0000     0.0000     0.0000     0.0000 </r>
        <r>   -13.4901     0.0000     0.0000     0.0000     0.0000     0.0000     0.0000     0.0000     0.0000     0.0000 </r>
        <r>   -13.4256     0.0000     0.0000     0.0000     0.0000     0.0000     0.0000     0.0000     0.0000     0.0000 </r>
        <r>   -13.3611     0.0000     0.0000     0.0000     0.0000     0.0000     0.0000     0.0000     0.0000     0.0000 </r>
        <r>   -13.2966     0.0000     0.0000     0.0000     0.0000     0.0000     0.0000     0.0000     0.0000     0.0000 </r>
        <r>   -13.2321     0.0000     0.0000     0.0000     0.0000     0.0000     0.0000     0.0000     0.0000     0.0000 </r>
        <r>   -13.1676     0.0000     0.0000     0.0000     0.0000     0.0000     0.0000     0.0000     0.0000     0.0000 </r>
        <r>   -13.1031     0.0000     0.0000     0.0000     0.0000     0.0000     0.0000     0.0000     0.0000     0.0000 </r>
        <r>   -13.0386     0.0000     0.0000     0.0000     0.0000     0.0000     0.0000     0.0000     0.0000     0.0000 </r>
        <r>   -12.9741     0.0000     0.0000     0.0000     0.0000     0.0000     0.0000     0.0000     0.0000     0.0000 </r>
        <r>   -12.9096     0.0000     0.0000     0.0000     0.0000     0.0000     0.0000     0.0000     0.0000     0.0000 </r>
        <r>   -12.8451     0.0000     0.0000     0.0000     0.0000     0.0000     0.0000     0.0000     0.0000     0.0000 </r>
        <r>   -12.7806     0.0000     0.0000     0.0000     0.0000     0.0000     0.0000     0.0000     0.0000     0.0000 </r>
        <r>   -12.7162     0.0000     0.0000     0.0000     0.0000     0.0000     0.0000     0.0000     0.0000     0.0000 </r>
        <r>   -12.6517     0.0000     0.0000     0.0000     0.0000     0.0000     0.0000     0.0000     0.0000     0.0000 </r>
        <r>   -12.5872     0.0000     0.0000     0.0000     0.0000     0.0000     0.0000     0.0000     0.0000     0.0000 </r>
        <r>   -12.5227     0.0000     0.0000     0.0000     0.0000     0.0000     0.0000     0.0000     0.0000     0.0000 </r>
        <r>   -12.4582     0.0000     0.0000     0.0000     0.0000     0.0000     0.0000     0.0000     0.0000     0.0000 </r>
        <r>   -12.3937     0.0000     0.0000     0.0000     0.0000     0.0000     0.0000     0.0000     0.0000     0.0000 </r>
        <r>   -12.3292     0.0000     0.0000     0.0000     0.0000     0.0000     0.0000     0.0000     0.0000     0.0000 </r>
        <r>   -12.2647     0.0000     0.0000     0.0000     0.0000     0.0000     0.0000     0.0000     0.0000     0.0000 </r>
        <r>   -12.2002     0.0000     0.0000     0.0000     0.0000     0.0000     0.0000     0.0000     0.0000     0.0000 </r>
        <r>   -12.1357     0.0000     0.0000     0.0000     0.0000     0.0000     0.0000     0.0000     0.0000     0.0000 </r>
        <r>   -12.0712     0.0000     0.0000     0.0000     0.0000     0.0000     0.0000     0.0000     0.0000     0.0000 </r>
        <r>   -12.0067     0.0000     0.0000     0.0000     0.0000     0.0000     0.0000     0.0000     0.0000     0.0000 </r>
        <r>   -11.9422     0.0000     0.0000     0.0000     0.0000     0.0000     0.0000     0.0000     0.0000     0.0000 </r>
        <r>   -11.8777     0.0000     0.0000     0.0000     0.0000     0.0000     0.0000     0.0000     0.0000     0.0000 </r>
        <r>   -11.8132     0.0000     0.0000     0.0000     0.0000     0.0000     0.0000     0.0000     0.0000     0.0000 </r>
        <r>   -11.7487     0.0000     0.0000     0.0000     0.0000     0.0000     0.0000     0.0000     0.0000     0.0000 </r>
        <r>   -11.6842     0.0000     0.0000     0.0000     0.0000     0.0000     0.0000     0.0000     0.0000     0.0000 </r>
        <r>   -11.6197     0.0000     0.0000     0.0000     0.0000     0.0000     0.0000     0.0000     0.0000     0.0000 </r>
        <r>   -11.5553     0.0000     0.0000     0.0000     0.0000     0.0000     0.0000     0.0000     0.0000     0.0000 </r>
        <r>   -11.4908     0.0000     0.0000     0.0000     0.0000     0.0000     0.0000     0.0000     0.0000     0.0000 </r>
        <r>   -11.4263     0.0000     0.0000     0.0000     0.0000     0.0000     0.0000     0.0000     0.0000     0.0000 </r>
        <r>   -11.3618     0.0000     0.0000     0.0000     0.0000     0.0000     0.0000     0.0000     0.0000     0.0000 </r>
        <r>   -11.2973     0.0000     0.0000     0.0000     0.0000     0.0000     0.0000     0.0000     0.0000     0.0000 </r>
        <r>   -11.2328     0.0000     0.0000     0.0000     0.0000     0.0000     0.0000     0.0000     0.0000     0.0000 </r>
        <r>   -11.1683     0.0000     0.0000     0.0000     0.0000     0.0000     0.0000     0.0000     0.0000     0.0000 </r>
        <r>   -11.1038     2.0948     0.0743     0.0000     0.0269     0.0000     0.0000     0.0000     0.0000     0.0000 </r>
        <r>   -11.0393     0.7453     0.0264     0.0000     0.0096     0.0000     0.0000     0.0000     0.0000     0.0000 </r>
        <r>   -10.9748     0.0000     0.0000     0.0000     0.0000     0.0000     0.0000     0.0000     0.0000     0.0000 </r>
        <r>   -10.9103     0.0000     0.0000     0.0000     0.0000     0.0000     0.0000     0.0000     0.0000     0.0000 </r>
        <r>   -10.8458     0.0000     0.0000     0.0000     0.0000     0.0000     0.0000     0.0000     0.0000     0.0000 </r>
        <r>   -10.7813     0.0000     0.0000     0.0000     0.0000     0.0000     0.0000     0.0000     0.0000     0.0000 </r>
        <r>   -10.7168     0.0000     0.0000     0.0000     0.0000     0.0000     0.0000     0.0000     0.0000     0.0000 </r>
        <r>   -10.6523     0.0000     0.0000     0.0000     0.0000     0.0000     0.0000     0.0000     0.0000     0.0000 </r>
        <r>   -10.5878     0.0000     0.0000     0.0000     0.0000     0.0000     0.0000     0.0000     0.0000     0.0000 </r>
        <r>   -10.5233     0.0000     0.0000     0.0000     0.0000     0.0000     0.0000     0.0000     0.0000     0.0000 </r>
        <r>   -10.4588     0.0000     0.0000     0.0000     0.0000     0.0000     0.0000     0.0000     0.0000     0.0000 </r>
        <r>   -10.3944     0.0000     0.0000     0.0000     0.0000     0.0000     0.0000     0.0000     0.0000     0.0000 </r>
        <r>   -10.3299     0.0000     0.0000     0.0000     0.0000     0.0000     0.0000     0.0000     0.0000     0.0000 </r>
        <r>   -10.2654     0.0000     0.0000     0.0000     0.0000     0.0000     0.0000     0.0000     0.0000     0.0000 </r>
        <r>   -10.2009     0.0000     0.0000     0.0000     0.0000     0.0000     0.0000     0.0000     0.0000     0.0000 </r>
        <r>   -10.1364     0.0000     0.0000     0.0000     0.0000     0.0000     0.0000     0.0000     0.0000     0.0000 </r>
        <r>   -10.0719     0.0000     0.0000     0.0000     0.0000     0.0000     0.0000     0.0000     0.0000     0.0000 </r>
        <r>   -10.0074     0.0000     0.0000     0.0000     0.0000     0.0000     0.0000     0.0000     0.0000     0.0000 </r>
        <r>    -9.9429     0.0000     0.0000     0.0000     0.0000     0.0000     0.0000     0.0000     0.0000     0.0000 </r>
        <r>    -9.8784     0.0000     0.0000     0.0000     0.0000     0.0000     0.0000     0.0000     0.0000     0.0000 </r>
        <r>    -9.8139     0.0000     0.0000     0.0000     0.0000     0.0000     0.0000     0.0000     0.0000     0.0000 </r>
        <r>    -9.7494     0.0000     0.0000     0.0000     0.0000     0.0000     0.0000     0.0000     0.0000     0.0000 </r>
        <r>    -9.6849     0.0000     0.0000     0.0000     0.0000     0.0000     0.0000     0.0000     0.0000     0.0000 </r>
        <r>    -9.6204     0.0000     0.0000     0.0000     0.0000     0.0000     0.0000     0.0000     0.0000     0.0000 </r>
        <r>    -9.5559     0.0000     0.0000     0.0000     0.0000     0.0000     0.0000     0.0000     0.0000     0.0000 </r>
        <r>    -9.4914     0.0000     0.0000     0.0000     0.0000     0.0000     0.0000     0.0000     0.0000     0.0000 </r>
        <r>    -9.4269     0.0000     0.0000     0.0000     0.0000     0.0000     0.0000     0.0000     0.0000     0.0000 </r>
        <r>    -9.3624     0.0000     0.0000     0.0000     0.0000     0.0000     0.0000     0.0000     0.0000     0.0000 </r>
        <r>    -9.2980     0.0000     0.0000     0.0000     0.0000     0.0000     0.0000     0.0000     0.0000     0.0000 </r>
        <r>    -9.2335     0.0000     0.0000     0.0000     0.0000     0.0000     0.0000     0.0000     0.0000     0.0000 </r>
        <r>    -9.1690     0.0000     0.0000     0.0000     0.0000     0.0000     0.0000     0.0000     0.0000     0.0000 </r>
        <r>    -9.1045     0.0000     0.0000     0.0000     0.0000     0.0000     0.0000     0.0000     0.0000     0.0000 </r>
        <r>    -9.0400     0.0000     0.0000     0.0000     0.0000     0.0000     0.0000     0.0000     0.0000     0.0000 </r>
        <r>    -8.9755     0.0000     0.0000     0.0000     0.0000     0.0000     0.0000     0.0000     0.0000     0.0000 </r>
        <r>    -8.9110     0.0000     0.0000     0.0000     0.0000     0.0000     0.0000     0.0000     0.0000     0.0000 </r>
        <r>    -8.8465     0.0000     0.0000     0.0000     0.0000     0.0000     0.0000     0.0000     0.0000     0.0000 </r>
        <r>    -8.7820     0.0000     0.0000     0.0000     0.0000     0.0000     0.0000     0.0000     0.0000     0.0000 </r>
        <r>    -8.7175     0.0000     0.0000     0.0000     0.0000     0.0000     0.0000     0.0000     0.0000     0.0000 </r>
        <r>    -8.6530     0.0000     0.0000     0.0000     0.0000     0.0000     0.0000     0.0000     0.0000     0.0000 </r>
        <r>    -8.5885     0.0000     0.0000     0.0000     0.0000     0.0000     0.0000     0.0000     0.0000     0.0000 </r>
        <r>    -8.5240     0.0000     0.0000     0.0000     0.0000     0.0000     0.0000     0.0000     0.0000     0.0000 </r>
        <r>    -8.4595     0.0000     0.0000     0.0000     0.0000     0.0000     0.0000     0.0000     0.0000     0.0000 </r>
        <r>    -8.3950     0.0000     0.0000     0.0000     0.0000     0.0000     0.0000     0.0000     0.0000     0.0000 </r>
        <r>    -8.3305     0.0000     0.0000     0.0000     0.0000     0.0000     0.0000     0.0000     0.0000     0.0000 </r>
        <r>    -8.2660     0.0000     0.0000     0.0000     0.0000     0.0000     0.0000     0.0000     0.0000     0.0000 </r>
        <r>    -8.2015     0.0000     0.0000     0.0000     0.0000     0.0000     0.0000     0.0000     0.0000     0.0000 </r>
        <r>    -8.1371     0.0000     0.0000     0.0000     0.0000     0.0000     0.0000     0.0000     0.0000     0.0000 </r>
        <r>    -8.0726     0.0000     0.0000     0.0000     0.0000     0.0000     0.0000     0.0000     0.0000     0.0000 </r>
        <r>    -8.0081     0.0000     0.0000     0.0000     0.0000     0.0000     0.0000     0.0000     0.0000     0.0000 </r>
        <r>    -7.9436     0.0000     0.0000     0.0000     0.0000     0.0000     0.0000     0.0000     0.0000     0.0000 </r>
        <r>    -7.8791     0.0000     0.0000     0.0000     0.0000     0.0000     0.0000     0.0000     0.0000     0.0000 </r>
        <r>    -7.8146     0.0000     0.0000     0.0000     0.0000     0.0000     0.0000     0.0000     0.0000     0.0000 </r>
        <r>    -7.7501     0.0000     0.0000     0.0000     0.0000     0.0000     0.0000     0.0000     0.0000     0.0000 </r>
        <r>    -7.6856     0.0000     0.0000     0.0000     0.0000     0.0000     0.0000     0.0000     0.0000     0.0000 </r>
        <r>    -7.6211     0.0000     0.0000     0.0000     0.0000     0.0000     0.0000     0.0000     0.0000     0.0000 </r>
        <r>    -7.5566     0.0000     0.0000     0.0000     0.0000     0.0000     0.0000     0.0000     0.0000     0.0000 </r>
        <r>    -7.4921     0.0000     0.0000     0.0000     0.0000     0.0000     0.0000     0.0000     0.0000     0.0000 </r>
        <r>    -7.4276     0.0000     0.0000     0.0000     0.0000     0.0000     0.0000     0.0000     0.0000     0.0000 </r>
        <r>    -7.3631     0.0000     0.0000     0.0000     0.0000     0.0000     0.0000     0.0000     0.0000     0.0000 </r>
        <r>    -7.2986     0.0000     0.0000     0.0000     0.0000     0.0000     0.0000     0.0000     0.0000     0.0000 </r>
        <r>    -7.2341     0.0000     0.0000     0.0000     0.0000     0.0000     0.0000     0.0000     0.0000     0.0000 </r>
        <r>    -7.1696     0.0000     0.0000     0.0000     0.0000     0.0000     0.0000     0.0000     0.0000     0.0000 </r>
        <r>    -7.1051     0.0000     0.0000     0.0000     0.0000     0.0000     0.0000     0.0000     0.0000     0.0000 </r>
        <r>    -7.0406     0.0000     0.0000     0.0000     0.0000     0.0000     0.0000     0.0000     0.0000     0.0000 </r>
        <r>    -6.9762     0.0000     0.0000     0.0000     0.0000     0.0000     0.0000     0.0000     0.0000     0.0000 </r>
        <r>    -6.9117     0.0000     0.0000     0.0000     0.0000     0.0000     0.0000     0.0000     0.0000     0.0000 </r>
        <r>    -6.8472     0.0000     0.0000     0.0000     0.0000     0.0000     0.0000     0.0000     0.0000     0.0000 </r>
        <r>    -6.7827     0.0000     0.0000     0.0000     0.0000     0.0000     0.0000     0.0000     0.0000     0.0000 </r>
        <r>    -6.7182     0.0000     0.0000     0.0000     0.0000     0.0000     0.0000     0.0000     0.0000     0.0000 </r>
        <r>    -6.6537     0.0000     0.0000     0.0000     0.0000     0.0000     0.0000     0.0000     0.0000     0.0000 </r>
        <r>    -6.5892     0.0847     0.0062     0.0000     0.0118     0.0000     0.0000     0.0000     0.0000     0.0000 </r>
        <r>    -6.5247     0.3030     0.0220     0.0000     0.0421     0.0000     0.0000     0.0000     0.0000     0.0000 </r>
        <r>    -6.4602     0.0000     0.0000     0.0000     0.0000     0.0000     0.0000     0.0000     0.0000     0.0000 </r>
        <r>    -6.3957     0.0000     0.0000     0.0000     0.0000     0.0000     0.0000     0.0000     0.0000     0.0000 </r>
        <r>    -6.3312     0.0000     0.0000     0.0000     0.0000     0.0000     0.0000     0.0000     0.0000     0.0000 </r>
        <r>    -6.2667     0.0000     0.0000     0.0000     0.0000     0.0000     0.0000     0.0000     0.0000     0.0000 </r>
        <r>    -6.2022     0.0000     0.0000     0.0000     0.0000     0.0000     0.0000     0.0000     0.0000     0.0000 </r>
        <r>    -6.1377     0.0000     0.0000     0.0000     0.0000     0.0000     0.0000     0.0000     0.0000     0.0000 </r>
        <r>    -6.0732     0.0000     0.0000     0.0000     0.0000     0.0000     0.0000     0.0000     0.0000     0.0000 </r>
        <r>    -6.0087     0.0000     0.0000     0.0000     0.0000     0.0000     0.0000     0.0000     0.0000     0.0000 </r>
        <r>    -5.9442     0.0000     0.0000     0.0000     0.0000     0.0000     0.0000     0.0000     0.0000     0.0000 </r>
        <r>    -5.8797     0.0000     0.0000     0.0000     0.0000     0.0000     0.0000     0.0000     0.0000     0.0000 </r>
        <r>    -5.8153     0.0000     0.0000     0.0000     0.0000     0.0000     0.0000     0.0000     0.0000     0.0000 </r>
        <r>    -5.7508     0.0000     0.0000     0.0000     0.0000     0.0000     0.0000     0.0000     0.0000     0.0000 </r>
        <r>    -5.6863     0.0000     0.0000     0.1152     0.0000     0.0000     0.0000     0.0000     0.0000     0.0000 </r>
        <r>    -5.6218     0.0000     0.0000     0.0000     0.0000     0.0000     0.0000     0.0000     0.0000     0.0000 </r>
        <r>    -5.5573     0.0000     0.0000     0.0000     0.0000     0.0000     0.0000     0.0000     0.0000     0.0000 </r>
        <r>    -5.4928     0.0000     0.0000     0.0000     0.0000     0.0000     0.0000     0.0000     0.0000     0.0000 </r>
        <r>    -5.4283     0.0000     0.0000     0.0000     0.0000     0.0000     0.0000     0.0000     0.0000     0.0000 </r>
        <r>    -5.3638     0.0000     0.0000     0.0000     0.0000     0.0000     0.0000     0.0000     0.0000     0.0000 </r>
        <r>    -5.2993     0.0000     0.0000     0.0000     0.0000     0.0000     0.0000     0.0000     0.0000     0.0000 </r>
        <r>    -5.2348     0.0000     0.0000     0.0000     0.0000     0.0000     0.0000     0.0000     0.0000     0.0000 </r>
        <r>    -5.1703     0.0000     0.0000     0.0000     0.0000     0.0000     0.0000     0.0000     0.0000     0.0000 </r>
[...]
        <r>    -3.0420     0.2617     0.0000     0.0000     1.7685     0.0000     0.0000     0.0000     0.0000     0.0000 </r>
        <r>    -2.9775     0.4240     0.0000     0.0000     2.8658     0.0000     0.0000     0.0000     0.0000     0.0000 </r>
        <r>    -2.9130     0.0000     0.0000     0.0000     0.0000     0.0000     0.0000     0.0000     0.0000     0.0000 </r>
        <r>    -2.8485     0.0000     0.0000     0.0000     0.0000     0.0000     0.0000     0.0000     0.0000     0.0000 </r>
        <r>    -2.7840     0.0000     0.0000     0.0000     0.0000     0.0000     0.0000     0.0000     0.0000     0.0000 </r>
        <r>    -2.7195     0.0000     0.0000     0.0000     0.0000     0.0000     0.0000     0.0000     0.0000     0.0000 </r>
        <r>    -2.6550     0.0000     0.0000     0.0000     0.0000     0.0000     0.0000     0.0000     0.0000     0.0000 </r>
        <r>    -2.5905     0.0000     0.0000     0.0000     0.0000     0.0000     0.0000     0.0000     0.0000     0.0000 </r>
        <r>    -2.5260     0.0000     0.0000     0.0000     0.0000     0.0000     0.0000     0.0000     0.0000     0.0000 </r>
        <r>    -2.4615     0.0000     0.0000     0.1176     0.0000     0.0000     0.0000     0.0000     0.0000     0.0000 </r>
        <r>    -2.3971     0.0000     0.0000     5.0727     0.0000     0.0000     0.0000     0.0000     0.0000     0.0000 </r>
        <r>    -2.3326     0.0000     0.0000     0.0000     0.0000     0.0000     0.0000     0.0000     0.0000     0.0000 </r>
        <r>    -2.2681     0.0000     0.0000     0.0000     0.0000     0.0000     0.0000     0.0000     0.0000     0.0000 </r>
        <r>    -2.2036     0.0000     0.0000     0.0000     0.0000     0.0000     0.0000     0.0000     0.0000     0.0000 </r>
        <r>    -2.1391     0.0000     0.0000     0.0000     0.0000     0.0000     0.0000     0.0000     0.0000     0.0000 </r>
        <r>    -2.0746     0.0000     0.0000     0.0000     0.0000     0.0000     0.0000     0.0000     0.0000     0.0000 </r>
        <r>    -2.0101     0.0000     0.0000     0.0000     0.0000     0.0000     0.0000     0.0000     0.0000     0.0000 </r>
        <r>    -1.9456     0.0000     0.0000     0.0000     0.0000     0.0000     0.0000     0.0000     0.0000     0.0000 </r>
        <r>    -1.8811     0.0000     0.0000     0.0000     0.0000     0.0000     0.0000     0.0000     0.0000     0.0000 </r>
        <r>    -1.8166     0.0000     0.0000     0.0000     0.0000     0.0000     0.0000     0.0000     0.0000     0.0000 </r>
        <r>    -1.7521     0.0000     0.0000     0.0000     0.0000     0.0000     0.0000     0.0000     0.0000     0.0000 </r>
        <r>    -1.6876     0.0000     0.0000     0.0000     0.0000     0.0000     0.0000     0.0000     0.0000     0.0000 </r>
        <r>    -1.6231     0.0000     0.0000     0.0000     0.0000     0.0000     0.0000     0.0000     0.0000     0.0000 </r>
        <r>    -1.5586     0.0000     0.0000     0.0000     0.0000     0.0000     0.0000     0.0000     0.0000     0.0000 </r>
        <r>    -1.4941     0.0000     0.0000     0.0000     0.0000     0.0000     0.0000     0.0000     0.0000     0.0000 </r>
        <r>    -1.4296     0.0000     0.0000     0.0000     0.0000     0.0000     0.0000     0.0000     0.0000     0.0000 </r>
        <r>    -1.3651     0.0000     0.0000     0.0000     0.0000     0.0000     0.0000     0.0000     0.0000     0.0000 </r>
        <r>    -1.3006     0.0000     0.0000     0.0000     0.0000     0.0000     0.0000     0.0000     0.0000     0.0000 </r>
        <r>    -1.2362     0.0000     0.0000     0.0000     0.0000     0.0000     0.0000     0.0000     0.0000     0.0000 </r>
        <r>    -1.1717     0.0000     0.0000     0.0000     0.0000     0.0000     0.0000     0.0000     0.0000     0.0000 </r>
        <r>    -1.1072     0.0000     0.0000     0.0000     0.0000     0.0000     0.0000     0.0000     0.0000     0.0000 </r>
        <r>    -1.0427     0.0000     0.0000     0.0000     0.0000     0.0000     0.0000     0.0000     0.0000     0.0000 </r>
        <r>    -0.9782     0.0000     0.0000     0.0000     0.0000     0.0000     0.0000     0.0000     0.0000     0.0000 </r>
        <r>    -0.9137     0.0000     0.0000     0.0000     0.0000     0.0000     0.0000     0.0000     0.0000     0.0000 </r>
        <r>    -0.8492     0.0000     0.0000     0.0000     0.0000     0.0000     0.0000     0.0000     0.0000     0.0000 </r>
        <r>    -0.7847     0.0000     0.0000     0.0000     0.0000     0.0000     0.0000     0.0000     0.0000     0.0000 </r>
        <r>    -0.7202     0.0000     0.0000     0.0000     0.0000     0.0000     0.0000     0.0000     0.0000     0.0000 </r>
        <r>    -0.6557     0.0000     0.0000     0.0000     0.0000     0.0000     0.0000     0.0000     0.0000     0.0000 </r>
        <r>    -0.5912     0.0000     0.0000     0.0000     0.0000     0.0000     0.0000     0.0000     0.0000     0.0000 </r>
        <r>    -0.5267     0.0000     0.0000     0.0000     0.0000     0.0000     0.0000     0.0000     0.0000     0.0000 </r>
        <r>    -0.4622     0.0000     0.0000     0.0000     0.0000     0.0000     0.0000     0.0000     0.0000     0.0000 </r>
        <r>    -0.3977     0.0000     0.0000     0.0000     0.0000     0.0000     0.0000     0.0000     0.0000     0.0000 </r>
        <r>    -0.3332     0.0000     0.0000     0.0000     0.0000     0.0000     0.0000     0.0000     0.0000     0.0000 </r>
        <r>    -0.2687     0.0000     0.0000     0.0000     0.0000     0.0000     0.0000     0.0000     0.0000     0.0000 </r>
        <r>    -0.2042     0.0000     0.0000     0.0000     0.0000     0.0000     0.0000     0.0000     0.0000     0.0000 </r>
        <r>    -0.1397     0.1728     0.0000     0.0000     0.0319     0.0000     0.0000     0.0000     0.0000     0.0000 </r>
        <r>    -0.0753     0.0000     0.0000     0.0000     0.0000     0.0000     0.0000     0.0000     0.0000     0.0000 </r>
        <r>    -0.0108     0.0000     0.0000     0.0000     0.0000     0.0000     0.0000     0.0000     0.0000     0.0000 </r>
        <r>     0.0537     0.0000     0.0000     0.0000     0.0000     0.0000     0.0000     0.0000     0.0000     0.0000 </r>
        <r>     0.1182     0.0000     0.0000     0.0000     0.0000     0.0000     0.0000     0.0000     0.0000     0.0000 </r>
        <r>     0.1827     0.0000     0.0000     0.0000     0.0000     0.0000     0.0000     0.0000     0.0000     0.0000 </r>
        <r>     0.2472     0.0541     0.0000     0.0000     0.0146     0.0000     0.0000     0.0000     0.0000     0.0000 </r>
        <r>     0.3117     0.2099     0.0001     0.0000     0.0568     0.0000     0.0000     0.0000     0.0000     0.0000 </r>
        <r>     0.3762     0.0000     0.0000     0.0000     0.0000     0.0000     0.0000     0.0000     0.0000     0.0000 </r>
        <r>     0.4407     0.0000     0.0001     0.0000     0.0000     0.0000     0.0000     0.0000     0.0000     0.0000 </r>
        <r>     0.5052     0.0024     0.1101     0.0000     0.0067     0.0000     0.0000     0.0000     0.0000     0.0000 </r>
        <r>     0.5697     0.0131     0.0024     0.0594     0.0098     0.0000     0.0000     0.0000     0.0000     0.0000 </r>
        <r>     0.6342     0.0125     0.0017     0.0000     0.0118     0.0000     0.0000     0.0000     0.0000     0.0000 </r>
        <r>     0.6987     0.0000     0.0000     0.0000     0.0000     0.0000     0.0000     0.0000     0.0000     0.0000 </r>
        <r>     0.7632     0.0000     0.0000     0.0000     0.0000     0.0000     0.0000     0.0000     0.0000     0.0000 </r>
        <r>     0.8277     0.0000     0.0000     0.0000     0.0000     0.0000     0.0000     0.0000     0.0000     0.0000 </r>
        <r>     0.8922     0.0000     0.0001     0.0000     0.0000     0.0000     0.0000     0.0000     0.0000     0.0000 </r>
        <r>     0.9567     0.0012     0.1850     0.0000     0.0002     0.0000     0.0000     0.0000     0.0000     0.0000 </r>
        <r>     1.0212     0.0000     0.0000     0.0000     0.0000     0.0000     0.0000     0.0000     0.0000     0.0000 </r>
        <r>     1.0856     0.0000     0.0000     0.0000     0.0000     0.0000     0.0000     0.0000     0.0000     0.0000 </r>
        <r>     1.1501     0.0000     0.0000     0.0000     0.0000     0.0000     0.0000     0.0000     0.0000     0.0000 </r>
        <r>     1.2146     0.0000     0.0000     0.0000     0.0000     0.0000     0.0000     0.0000     0.0000     0.0000 </r>
        <r>     1.2791     0.0000     0.0000     0.0000     0.0000     0.0000     0.0000     0.0000     0.0000     0.0000 </r>
        <r>     1.3436     0.0000     0.0000     0.0000     0.0000     0.0000     0.0000     0.0000     0.0000     0.0000 </r>
        <r>     1.4081     0.0000     0.0000     0.0000     0.0000     0.0000     0.0000     0.0000     0.0000     0.0000 </r>
        <r>     1.4726     0.0000     0.0000     0.0000     0.0000     0.0000     0.0000     0.0000     0.0000     0.0000 </r>
        <r>     1.5371     0.0000     0.0000     0.0000     0.0000     0.0000     0.0000     0.0000     0.0000     0.0000 </r>
        <r>     1.6016     0.0000     0.0000     0.0000     0.0000     0.0000     0.0000     0.0000     0.0000     0.0000 </r>
        <r>     1.6661     0.0000     0.0000     0.0000     0.0000     0.0000     0.0000     0.0000     0.0000     0.0000 </r>
        <r>     1.7306     0.0000     0.0000     0.0000     0.0000     0.0000     0.0000     0.0000     0.0000     0.0000 </r>
        <r>     1.7951     0.0000     0.0000     0.0000     0.0000     0.0000     0.0000     0.0000     0.0000     0.0000 </r>
       </set>
      </set>
     </set>
    </array>
   </partial>
  </dos>
  <projected>
   <eigenvalues>
    <array>
     <dimension dim="1">band</dimension>
     <dimension dim="2">kpoint</dimension>
     <dimension dim="3">spin</dimension>
     <field>eigene</field>
     <field>occ</field>
     <set>
      <set comment="spin 1">
       <set comment="kpoint 1">
        <r>  -16.6738    1.0000 </r>
        <r>  -11.1083    1.0000 </r>
        <r>   -6.5837    1.0000 </r>
        <r>   -5.7164    1.0000 </r>
        <r>   -0.4908    0.0000 </r>
        <r>    0.1031    0.0000 </r>
        <r>    0.3512    0.0000 </r>
        <r>    0.4061    0.0000 </r>
        <r>    0.4141    0.0000 </r>
        <r>    0.4482    0.0000 </r>
        <r>    0.4897    0.0000 </r>
        <r>    0.8404    0.0000 </r>
       </set>
      </set>
      <set comment="spin 2">
       <set comment="kpoint 1">
        <r>  -14.8416    1.0000 </r>
        <r>  -10.6141    1.0000 </r>
        <r>   -3.0399    0.0000 </r>
        <r>   -2.4474    0.0000 </r>
        <r>   -0.1613    0.0000 </r>
        <r>    0.2530    0.0000 </r>
        <r>    0.4621    0.0000 </r>
        <r>    0.4649    0.0000 </r>
        <r>    0.5070    0.0000 </r>
        <r>    0.5496    0.0000 </r>
        <r>    0.5708    0.0000 </r>
        <r>    0.9156    0.0000 </r>
       </set>
      </set>
     </set>
    </array>
   </eigenvalues>
   <array>
    <dimension dim="1">ion</dimension>
    <dimension dim="2">band</dimension>
    <dimension dim="3">kpoint</dimension>
    <dimension dim="4">spin</dimension>
    <field>  s</field>
    <field> py</field>
    <field> pz</field>
    <field> px</field>
    <field>dxy</field>
    <field>dyz</field>
    <field>dz2</field>
    <field>dxz</field>
    <field>dx2</field>
    <set>
     <set comment="spin1">
      <set comment="kpoint 1">
       <set comment="band 1">
        <r>  0.1009  0.0080  0.0000  0.0009  0.0000  0.0000  0.0000  0.0000  0.0000 </r>
        <r>  0.1009  0.0080  0.0000  0.0009  0.0000  0.0000  0.0000  0.0000  0.0000 </r>
        <r>  0.4474  0.0000  0.0000  0.0078  0.0000  0.0000  0.0000  0.0000  0.0000 </r>
       </set>
       <set comment="band 2">
        <r>  0.1832  0.0065  0.0000  0.0024  0.0000  0.0000  0.0000  0.0000  0.0000 </r>
        <r>  0.1832  0.0065  0.0000  0.0024  0.0000  0.0000  0.0000  0.0000  0.0000 </r>
        <r>  0.0000  0.3238  0.0000  0.0000  0.0000  0.0000  0.0000  0.0000  0.0000 </r>
       </set>
       <set comment="band 3">
        <r>  0.0250  0.0018  0.0000  0.0035  0.0000  0.0000  0.0000  0.0000  0.0000 </r>
        <r>  0.0250  0.0018  0.0000  0.0035  0.0000  0.0000  0.0000  0.0000  0.0000 </r>
        <r>  0.0299  0.0000  0.0000  0.4022  0.0000  0.0000  0.0000  0.0000  0.0000 </r>
       </set>
       <set comment="band 4">
        <r>  0.0000  0.0000  0.0074  0.0000  0.0000  0.0000  0.0000  0.0000  0.0000 </r>
        <r>  0.0000  0.0000  0.0074  0.0000  0.0000  0.0000  0.0000  0.0000  0.0000 </r>
        <r>  0.0000  0.0000  0.4430  0.0000  0.0000  0.0000  0.0000  0.0000  0.0000 </r>
       </set>
       <set comment="band 5">
        <r>  0.0007  0.0032  0.0000  0.0002  0.0000  0.0000  0.0000  0.0000  0.0000 </r>
        <r>  0.0006  0.0033  0.0000  0.0002  0.0000  0.0000  0.0000  0.0000  0.0000 </r>
        <r>  0.0299  0.0000  0.0000  0.0041  0.0000  0.0000  0.0000  0.0000  0.0000 </r>
       </set>
       <set comment="band 6">
        <r>  0.0004  0.0011  0.0000  0.0000  0.0000  0.0000  0.0000  0.0000  0.0000 </r>
        <r>  0.0004  0.0010  0.0000  0.0000  0.0000  0.0000  0.0000  0.0000  0.0000 </r>
        <r>  0.0085  0.0000  0.0000  0.0016  0.0000  0.0000  0.0000  0.0000  0.0000 </r>
       </set>
       <set comment="band 7">
        <r>  0.0005  0.0011  0.0000  0.0003  0.0000  0.0000  0.0000  0.0000  0.0000 </r>
        <r>  0.0004  0.0013  0.0000  0.0003  0.0000  0.0000  0.0000  0.0000  0.0000 </r>
        <r>  0.0000  0.0133  0.0000  0.0000  0.0000  0.0000  0.0000  0.0000  0.0000 </r>
       </set>
       <set comment="band 8">
        <r>  0.0005  0.0000  0.0000  0.0000  0.0000  0.0000  0.0000  0.0000  0.0000 </r>
        <r>  0.0005  0.0000  0.0000  0.0000  0.0000  0.0000  0.0000  0.0000  0.0000 </r>
        <r>  0.0008  0.0000  0.0000  0.0054  0.0000  0.0000  0.0000  0.0000  0.0000 </r>
       </set>
       <set comment="band 9">
        <r>  0.0000  0.0000  0.0000  0.0000  0.0000  0.0000  0.0000  0.0000  0.0000 </r>
        <r>  0.0000  0.0000  0.0000  0.0000  0.0000  0.0000  0.0000  0.0000  0.0000 </r>
        <r>  0.0000  0.0000  0.0094  0.0000  0.0000  0.0000  0.0000  0.0000  0.0000 </r>
       </set>
       <set comment="band 10">
        <r>  0.0001  0.0000  0.0000  0.0000  0.0000  0.0000  0.0000  0.0000  0.0000 </r>
        <r>  0.0001  0.0001  0.0000  0.0000  0.0000  0.0000  0.0000  0.0000  0.0000 </r>
        <r>  0.0000  0.0000  0.0000  0.0016  0.0000  0.0000  0.0000  0.0000  0.0000 </r>
       </set>
       <set comment="band 11">
        <r>  0.0001  0.0000  0.0000  0.0000  0.0000  0.0000  0.0000  0.0000  0.0000 </r>
        <r>  0.0001  0.0000  0.0000  0.0000  0.0000  0.0000  0.0000  0.0000  0.0000 </r>
        <r>  0.0001  0.0000  0.0000  0.0005  0.0000  0.0000  0.0000  0.0000  0.0000 </r>
       </set>
       <set comment="band 12">
        <r>  0.0000  0.0016  0.0000  0.0003  0.0000  0.0000  0.0000  0.0000  0.0000 </r>
        <r>  0.0006  0.0004  0.0000  0.0002  0.0000  0.0000  0.0000  0.0000  0.0000 </r>
        <r>  0.0003  0.0098  0.0000  0.0005  0.0000  0.0000  0.0000  0.0000  0.0000 </r>
       </set>
      </set>
     </set>
     <set comment="spin2">
      <set comment="kpoint 1">
       <set comment="band 1">
        <r>  0.1255  0.0083  0.0000  0.0010  0.0000  0.0000  0.0000  0.0000  0.0000 </r>
        <r>  0.1254  0.0083  0.0000  0.0010  0.0000  0.0000  0.0000  0.0000  0.0000 </r>
        <r>  0.3804  0.0000  0.0000  0.0207  0.0000  0.0000  0.0000  0.0000  0.0000 </r>
       </set>
       <set comment="band 2">
        <r>  0.1911  0.0060  0.0000  0.0026  0.0000  0.0000  0.0000  0.0000  0.0000 </r>
        <r>  0.1911  0.0060  0.0000  0.0026  0.0000  0.0000  0.0000  0.0000  0.0000 </r>
        <r>  0.0000  0.3076  0.0000  0.0000  0.0000  0.0000  0.0000  0.0000  0.0000 </r>
       </set>
       <set comment="band 3">
        <r>  0.0149  0.0009  0.0000  0.0056  0.0000  0.0000  0.0000  0.0000  0.0000 </r>
        <r>  0.0149  0.0009  0.0000  0.0056  0.0000  0.0000  0.0000  0.0000  0.0000 </r>
        <r>  0.0442  0.0000  0.0000  0.2989  0.0000  0.0000  0.0000  0.0000  0.0000 </r>
       </set>
       <set comment="band 4">
        <r>  0.0000  0.0000  0.0093  0.0000  0.0000  0.0000  0.0000  0.0000  0.0000 </r>
        <r>  0.0000  0.0000  0.0093  0.0000  0.0000  0.0000  0.0000  0.0000  0.0000 </r>
        <r>  0.0000  0.0000  0.3347  0.0000  0.0000  0.0000  0.0000  0.0000  0.0000 </r>
       </set>
       <set comment="band 5">
        <r>  0.0000  0.0014  0.0000  0.0001  0.0000  0.0000  0.0000  0.0000  0.0000 </r>
        <r>  0.0000  0.0013  0.0000  0.0001  0.0000  0.0000  0.0000  0.0000  0.0000 </r>
        <r>  0.0112  0.0000  0.0000  0.0021  0.0000  0.0000  0.0000  0.0000  0.0000 </r>
       </set>
       <set comment="band 6">
        <r>  0.0002  0.0023  0.0000  0.0001  0.0000  0.0000  0.0000  0.0000  0.0000 </r>
        <r>  0.0001  0.0025  0.0000  0.0001  0.0000  0.0000  0.0000  0.0000  0.0000 </r>
        <r>  0.0170  0.0000  0.0000  0.0046  0.0000  0.0000  0.0000  0.0000  0.0000 </r>
       </set>
       <set comment="band 7">
        <r>  0.0005  0.0004  0.0000  0.0001  0.0000  0.0000  0.0000  0.0000  0.0000 </r>
        <r>  0.0000  0.0003  0.0000  0.0001  0.0000  0.0000  0.0000  0.0000  0.0000 </r>
        <r>  0.0000  0.0035  0.0000  0.0003  0.0000  0.0000  0.0000  0.0000  0.0000 </r>
       </set>
       <set comment="band 8">
        <r>  0.0001  0.0003  0.0000  0.0001  0.0000  0.0000  0.0000  0.0000  0.0000 </r>
        <r>  0.0005  0.0004  0.0000  0.0001  0.0000  0.0000  0.0000  0.0000  0.0000 </r>
        <r>  0.0000  0.0035  0.0000  0.0001  0.0000  0.0000  0.0000  0.0000  0.0000 </r>
       </set>
       <set comment="band 9">
        <r>  0.0000  0.0001  0.0000  0.0000  0.0000  0.0000  0.0000  0.0000  0.0000 </r>
        <r>  0.0000  0.0000  0.0000  0.0000  0.0000  0.0000  0.0000  0.0000  0.0000 </r>
        <r>  0.0004  0.0001  0.0000  0.0001  0.0000  0.0000  0.0000  0.0000  0.0000 </r>
       </set>
       <set comment="band 10">
        <r>  0.0000  0.0000  0.0001  0.0000  0.0000  0.0000  0.0000  0.0000  0.0000 </r>
        <r>  0.0000  0.0000  0.0001  0.0000  0.0000  0.0000  0.0000  0.0000  0.0000 </r>
        <r>  0.0000  0.0000  0.0038  0.0000  0.0000  0.0000  0.0000  0.0000  0.0000 </r>
       </set>
       <set comment="band 11">
        <r>  0.0001  0.0001  0.0000  0.0001  0.0000  0.0000  0.0000  0.0000  0.0000 </r>
        <r>  0.0002  0.0000  0.0000  0.0000  0.0000  0.0000  0.0000  0.0000  0.0000 </r>
        <r>  0.0014  0.0002  0.0000  0.0014  0.0000  0.0000  0.0000  0.0000  0.0000 </r>
       </set>
       <set comment="band 12">
        <r>  0.0005  0.0009  0.0000  0.0003  0.0000  0.0000  0.0000  0.0000  0.0000 </r>
        <r>  0.0004  0.0014  0.0000  0.0003  0.0000  0.0000  0.0000  0.0000  0.0000 </r>
        <r>  0.0001  0.0119  0.0000  0.0000  0.0000  0.0000  0.0000  0.0000  0.0000 </r>
       </set>
      </set>
     </set>
    </set>
   </array>
  </projected>
 </calculation>
 <structure name="finalpos" >
  <crystal>
   <varray name="basis" >
    <v>      16.00000000       0.00000000       0.00000000 </v>
    <v>       0.00000000      16.00000000       0.00000000 </v>
    <v>       0.00000000       0.00000000      16.00000000 </v>
   </varray>
   <i name="volume">   4096.00000000 </i>
   <varray name="rec_basis" >
    <v>       0.06250000       0.00000000       0.00000000 </v>
    <v>       0.00000000       0.06250000       0.00000000 </v>
    <v>       0.00000000       0.00000000       0.06250000 </v>
   </varray>
  </crystal>
  <varray name="positions" >
   <v>       0.51485159       0.43726867       0.50000000 </v>
   <v>       0.51485159       0.56273133       0.50000000 </v>
   <v>       0.48892437       0.50000000       0.50000000 </v>
  </varray>
 </structure>
</modeling>
