unknown system                          
           1
    16.000000    0.000000    0.000000
     0.000000   16.000000    0.000000
     0.000000    0.000000   16.000000
   H    C 
   2   1
Direct configuration=     1
   0.51485159  0.43726867  0.50000000
   0.51485159  0.56273133  0.50000000
   0.48892437  0.50000000  0.50000000
