   3   3   1   0
  0.1365333E+04  0.1600000E-08  0.1600000E-08  0.1600000E-08  0.5000000E-15
  1.000000000000000E-004
  CAR 
 unknown system                          
      1.42536623    -17.53541054  301     -5.63752312      1.00000000
    -17.535  0.0000E+00  0.0000E+00  0.0000E+00  0.0000E+00
    -17.472  0.0000E+00  0.0000E+00  0.0000E+00  0.0000E+00
    -17.409  0.0000E+00  0.0000E+00  0.0000E+00  0.0000E+00
    -17.346  0.0000E+00  0.0000E+00  0.0000E+00  0.0000E+00
    -17.283  0.0000E+00  0.0000E+00  0.0000E+00  0.0000E+00
    -17.219  0.0000E+00  0.0000E+00  0.0000E+00  0.0000E+00
    -17.156  0.0000E+00  0.0000E+00  0.0000E+00  0.0000E+00
    -17.093  0.0000E+00  0.0000E+00  0.0000E+00  0.0000E+00
    -17.030  0.0000E+00  0.0000E+00  0.0000E+00  0.0000E+00
    -16.967  0.0000E+00  0.0000E+00  0.0000E+00  0.0000E+00
    -16.903  0.0000E+00  0.0000E+00  0.0000E+00  0.0000E+00
    -16.840  0.0000E+00  0.0000E+00  0.0000E+00  0.0000E+00
    -16.777  0.0000E+00  0.0000E+00  0.0000E+00  0.0000E+00
    -16.714  0.2034E-09  0.0000E+00  0.1286E-10  0.0000E+00
    -16.651  0.3163E-01  0.0000E+00  0.1999E-02  0.0000E+00
    -16.587  0.0000E+00  0.0000E+00  0.2000E-02  0.0000E+00
    -16.524  0.0000E+00  0.0000E+00  0.2000E-02  0.0000E+00
    -16.461  0.0000E+00  0.0000E+00  0.2000E-02  0.0000E+00
    -16.398  0.0000E+00  0.0000E+00  0.2000E-02  0.0000E+00
    -16.335  0.0000E+00  0.0000E+00  0.2000E-02  0.0000E+00
    -16.271  0.0000E+00  0.0000E+00  0.2000E-02  0.0000E+00
    -16.208  0.0000E+00  0.0000E+00  0.2000E-02  0.0000E+00
    -16.145  0.0000E+00  0.0000E+00  0.2000E-02  0.0000E+00
    -16.082  0.0000E+00  0.0000E+00  0.2000E-02  0.0000E+00
    -16.019  0.0000E+00  0.0000E+00  0.2000E-02  0.0000E+00
    -15.955  0.0000E+00  0.0000E+00  0.2000E-02  0.0000E+00
    -15.892  0.0000E+00  0.0000E+00  0.2000E-02  0.0000E+00
    -15.829  0.0000E+00  0.0000E+00  0.2000E-02  0.0000E+00
    -15.766  0.0000E+00  0.0000E+00  0.2000E-02  0.0000E+00
    -15.703  0.0000E+00  0.0000E+00  0.2000E-02  0.0000E+00
    -15.639  0.0000E+00  0.0000E+00  0.2000E-02  0.0000E+00
    -15.576  0.0000E+00  0.0000E+00  0.2000E-02  0.0000E+00
    -15.513  0.0000E+00  0.0000E+00  0.2000E-02  0.0000E+00
    -15.450  0.0000E+00  0.0000E+00  0.2000E-02  0.0000E+00
    -15.387  0.0000E+00  0.0000E+00  0.2000E-02  0.0000E+00
    -15.323  0.0000E+00  0.0000E+00  0.2000E-02  0.0000E+00
    -15.260  0.0000E+00  0.0000E+00  0.2000E-02  0.0000E+00
    -15.197  0.0000E+00  0.0000E+00  0.2000E-02  0.0000E+00
    -15.134  0.0000E+00  0.0000E+00  0.2000E-02  0.0000E+00
    -15.071  0.0000E+00  0.0000E+00  0.2000E-02  0.0000E+00
    -15.007  0.0000E+00  0.0000E+00  0.2000E-02  0.0000E+00
    -14.944  0.0000E+00  0.0000E+00  0.2000E-02  0.0000E+00
    -14.881  0.0000E+00  0.3641E-09  0.2000E-02  0.2301E-10
    -14.818  0.0000E+00  0.3163E-01  0.2000E-02  0.1999E-02
    -14.754  0.0000E+00  0.0000E+00  0.2000E-02  0.2000E-02
    -14.691  0.0000E+00  0.0000E+00  0.2000E-02  0.2000E-02
    -14.628  0.0000E+00  0.0000E+00  0.2000E-02  0.2000E-02
    -14.565  0.0000E+00  0.0000E+00  0.2000E-02  0.2000E-02
    -14.502  0.0000E+00  0.0000E+00  0.2000E-02  0.2000E-02
    -14.438  0.0000E+00  0.0000E+00  0.2000E-02  0.2000E-02
    -14.375  0.0000E+00  0.0000E+00  0.2000E-02  0.2000E-02
    -14.312  0.0000E+00  0.0000E+00  0.2000E-02  0.2000E-02
    -14.249  0.0000E+00  0.0000E+00  0.2000E-02  0.2000E-02
    -14.186  0.0000E+00  0.0000E+00  0.2000E-02  0.2000E-02
    -14.122  0.0000E+00  0.0000E+00  0.2000E-02  0.2000E-02
    -14.059  0.0000E+00  0.0000E+00  0.2000E-02  0.2000E-02
    -13.996  0.0000E+00  0.0000E+00  0.2000E-02  0.2000E-02
    -13.933  0.0000E+00  0.0000E+00  0.2000E-02  0.2000E-02
    -13.870  0.0000E+00  0.0000E+00  0.2000E-02  0.2000E-02
    -13.806  0.0000E+00  0.0000E+00  0.2000E-02  0.2000E-02
    -13.743  0.0000E+00  0.0000E+00  0.2000E-02  0.2000E-02
    -13.680  0.0000E+00  0.0000E+00  0.2000E-02  0.2000E-02
    -13.617  0.0000E+00  0.0000E+00  0.2000E-02  0.2000E-02
    -13.554  0.0000E+00  0.0000E+00  0.2000E-02  0.2000E-02
    -13.490  0.0000E+00  0.0000E+00  0.2000E-02  0.2000E-02
    -13.427  0.0000E+00  0.0000E+00  0.2000E-02  0.2000E-02
    -13.364  0.0000E+00  0.0000E+00  0.2000E-02  0.2000E-02
    -13.301  0.0000E+00  0.0000E+00  0.2000E-02  0.2000E-02
    -13.238  0.0000E+00  0.0000E+00  0.2000E-02  0.2000E-02
    -13.174  0.0000E+00  0.0000E+00  0.2000E-02  0.2000E-02
    -13.111  0.0000E+00  0.0000E+00  0.2000E-02  0.2000E-02
    -13.048  0.0000E+00  0.0000E+00  0.2000E-02  0.2000E-02
    -12.985  0.0000E+00  0.0000E+00  0.2000E-02  0.2000E-02
    -12.922  0.0000E+00  0.0000E+00  0.2000E-02  0.2000E-02
    -12.858  0.0000E+00  0.0000E+00  0.2000E-02  0.2000E-02
    -12.795  0.0000E+00  0.0000E+00  0.2000E-02  0.2000E-02
    -12.732  0.0000E+00  0.0000E+00  0.2000E-02  0.2000E-02
    -12.669  0.0000E+00  0.0000E+00  0.2000E-02  0.2000E-02
    -12.606  0.0000E+00  0.0000E+00  0.2000E-02  0.2000E-02
    -12.542  0.0000E+00  0.0000E+00  0.2000E-02  0.2000E-02
    -12.479  0.0000E+00  0.0000E+00  0.2000E-02  0.2000E-02
    -12.416  0.0000E+00  0.0000E+00  0.2000E-02  0.2000E-02
    -12.353  0.0000E+00  0.0000E+00  0.2000E-02  0.2000E-02
    -12.290  0.0000E+00  0.0000E+00  0.2000E-02  0.2000E-02
    -12.226  0.0000E+00  0.0000E+00  0.2000E-02  0.2000E-02
    -12.163  0.0000E+00  0.0000E+00  0.2000E-02  0.2000E-02
    -12.100  0.0000E+00  0.0000E+00  0.2000E-02  0.2000E-02
    -12.037  0.0000E+00  0.0000E+00  0.2000E-02  0.2000E-02
    -11.974  0.0000E+00  0.0000E+00  0.2000E-02  0.2000E-02
    -11.910  0.0000E+00  0.0000E+00  0.2000E-02  0.2000E-02
    -11.847  0.0000E+00  0.0000E+00  0.2000E-02  0.2000E-02
    -11.784  0.0000E+00  0.0000E+00  0.2000E-02  0.2000E-02
    -11.721  0.0000E+00  0.0000E+00  0.2000E-02  0.2000E-02
    -11.658  0.0000E+00  0.0000E+00  0.2000E-02  0.2000E-02
    -11.594  0.0000E+00  0.0000E+00  0.2000E-02  0.2000E-02
    -11.531  0.0000E+00  0.0000E+00  0.2000E-02  0.2000E-02
    -11.468  0.0000E+00  0.0000E+00  0.2000E-02  0.2000E-02
    -11.405  0.0000E+00  0.0000E+00  0.2000E-02  0.2000E-02
    -11.342  0.0000E+00  0.0000E+00  0.2000E-02  0.2000E-02
    -11.278  0.0000E+00  0.0000E+00  0.2000E-02  0.2000E-02
    -11.215  0.0000E+00  0.0000E+00  0.2000E-02  0.2000E-02
    -11.152  0.9096E-11  0.0000E+00  0.2000E-02  0.2000E-02
    -11.089  0.3155E-01  0.0000E+00  0.3994E-02  0.2000E-02
    -11.026  0.0000E+00  0.0000E+00  0.4000E-02  0.2000E-02
    -10.962  0.0000E+00  0.0000E+00  0.4000E-02  0.2000E-02
    -10.899  0.0000E+00  0.0000E+00  0.4000E-02  0.2000E-02
    -10.836  0.0000E+00  0.0000E+00  0.4000E-02  0.2000E-02
    -10.773  0.0000E+00  0.0000E+00  0.4000E-02  0.2000E-02
    -10.710  0.0000E+00  0.0000E+00  0.4000E-02  0.2000E-02
    -10.646  0.0000E+00  0.7465E-07  0.4000E-02  0.2000E-02
    -10.583  0.0000E+00  0.3164E-01  0.4000E-02  0.4000E-02
    -10.520  0.0000E+00  0.0000E+00  0.4000E-02  0.4000E-02
    -10.457  0.0000E+00  0.0000E+00  0.4000E-02  0.4000E-02
    -10.394  0.0000E+00  0.0000E+00  0.4000E-02  0.4000E-02
    -10.330  0.0000E+00  0.0000E+00  0.4000E-02  0.4000E-02
    -10.267  0.0000E+00  0.0000E+00  0.4000E-02  0.4000E-02
    -10.204  0.0000E+00  0.0000E+00  0.4000E-02  0.4000E-02
    -10.141  0.0000E+00  0.0000E+00  0.4000E-02  0.4000E-02
    -10.078  0.0000E+00  0.0000E+00  0.4000E-02  0.4000E-02
    -10.014  0.0000E+00  0.0000E+00  0.4000E-02  0.4000E-02
     -9.951  0.0000E+00  0.0000E+00  0.4000E-02  0.4000E-02
     -9.888  0.0000E+00  0.0000E+00  0.4000E-02  0.4000E-02
     -9.825  0.0000E+00  0.0000E+00  0.4000E-02  0.4000E-02
     -9.761  0.0000E+00  0.0000E+00  0.4000E-02  0.4000E-02
     -9.698  0.0000E+00  0.0000E+00  0.4000E-02  0.4000E-02
     -9.635  0.0000E+00  0.0000E+00  0.4000E-02  0.4000E-02
     -9.572  0.0000E+00  0.0000E+00  0.4000E-02  0.4000E-02
     -9.509  0.0000E+00  0.0000E+00  0.4000E-02  0.4000E-02
     -9.445  0.0000E+00  0.0000E+00  0.4000E-02  0.4000E-02
     -9.382  0.0000E+00  0.0000E+00  0.4000E-02  0.4000E-02
     -9.319  0.0000E+00  0.0000E+00  0.4000E-02  0.4000E-02
     -9.256  0.0000E+00  0.0000E+00  0.4000E-02  0.4000E-02
     -9.193  0.0000E+00  0.0000E+00  0.4000E-02  0.4000E-02
     -9.129  0.0000E+00  0.0000E+00  0.4000E-02  0.4000E-02
     -9.066  0.0000E+00  0.0000E+00  0.4000E-02  0.4000E-02
     -9.003  0.0000E+00  0.0000E+00  0.4000E-02  0.4000E-02
     -8.940  0.0000E+00  0.0000E+00  0.4000E-02  0.4000E-02
     -8.877  0.0000E+00  0.0000E+00  0.4000E-02  0.4000E-02
     -8.813  0.0000E+00  0.0000E+00  0.4000E-02  0.4000E-02
     -8.750  0.0000E+00  0.0000E+00  0.4000E-02  0.4000E-02
     -8.687  0.0000E+00  0.0000E+00  0.4000E-02  0.4000E-02
     -8.624  0.0000E+00  0.0000E+00  0.4000E-02  0.4000E-02
     -8.561  0.0000E+00  0.0000E+00  0.4000E-02  0.4000E-02
     -8.497  0.0000E+00  0.0000E+00  0.4000E-02  0.4000E-02
     -8.434  0.0000E+00  0.0000E+00  0.4000E-02  0.4000E-02
     -8.371  0.0000E+00  0.0000E+00  0.4000E-02  0.4000E-02
     -8.308  0.0000E+00  0.0000E+00  0.4000E-02  0.4000E-02
     -8.245  0.0000E+00  0.0000E+00  0.4000E-02  0.4000E-02
     -8.181  0.0000E+00  0.0000E+00  0.4000E-02  0.4000E-02
     -8.118  0.0000E+00  0.0000E+00  0.4000E-02  0.4000E-02
     -8.055  0.0000E+00  0.0000E+00  0.4000E-02  0.4000E-02
     -7.992  0.0000E+00  0.0000E+00  0.4000E-02  0.4000E-02
     -7.929  0.0000E+00  0.0000E+00  0.4000E-02  0.4000E-02
     -7.865  0.0000E+00  0.0000E+00  0.4000E-02  0.4000E-02
     -7.802  0.0000E+00  0.0000E+00  0.4000E-02  0.4000E-02
     -7.739  0.0000E+00  0.0000E+00  0.4000E-02  0.4000E-02
     -7.676  0.0000E+00  0.0000E+00  0.4000E-02  0.4000E-02
     -7.613  0.0000E+00  0.0000E+00  0.4000E-02  0.4000E-02
     -7.549  0.0000E+00  0.0000E+00  0.4000E-02  0.4000E-02
     -7.486  0.0000E+00  0.0000E+00  0.4000E-02  0.4000E-02
     -7.423  0.0000E+00  0.0000E+00  0.4000E-02  0.4000E-02
     -7.360  0.0000E+00  0.0000E+00  0.4000E-02  0.4000E-02
     -7.297  0.0000E+00  0.0000E+00  0.4000E-02  0.4000E-02
     -7.233  0.0000E+00  0.0000E+00  0.4000E-02  0.4000E-02
     -7.170  0.0000E+00  0.0000E+00  0.4000E-02  0.4000E-02
     -7.107  0.0000E+00  0.0000E+00  0.4000E-02  0.4000E-02
     -7.044  0.0000E+00  0.0000E+00  0.4000E-02  0.4000E-02
     -6.981  0.0000E+00  0.0000E+00  0.4000E-02  0.4000E-02
     -6.917  0.0000E+00  0.0000E+00  0.4000E-02  0.4000E-02
     -6.854  0.0000E+00  0.0000E+00  0.4000E-02  0.4000E-02
     -6.791  0.0000E+00  0.0000E+00  0.4000E-02  0.4000E-02
     -6.728  0.0000E+00  0.0000E+00  0.4000E-02  0.4000E-02
     -6.665  0.0000E+00  0.0000E+00  0.4000E-02  0.4000E-02
     -6.601  0.1861E-03  0.0000E+00  0.4012E-02  0.4000E-02
     -6.538  0.3146E-01  0.0000E+00  0.6000E-02  0.4000E-02
     -6.475  0.0000E+00  0.0000E+00  0.6000E-02  0.4000E-02
     -6.412  0.0000E+00  0.0000E+00  0.6000E-02  0.4000E-02
     -6.349  0.0000E+00  0.0000E+00  0.6000E-02  0.4000E-02
     -6.285  0.0000E+00  0.0000E+00  0.6000E-02  0.4000E-02
     -6.222  0.0000E+00  0.0000E+00  0.6000E-02  0.4000E-02
     -6.159  0.0000E+00  0.0000E+00  0.6000E-02  0.4000E-02
     -6.096  0.0000E+00  0.0000E+00  0.6000E-02  0.4000E-02
     -6.033  0.0000E+00  0.0000E+00  0.6000E-02  0.4000E-02
     -5.969  0.0000E+00  0.0000E+00  0.6000E-02  0.4000E-02
     -5.906  0.0000E+00  0.0000E+00  0.6000E-02  0.4000E-02
     -5.843  0.0000E+00  0.0000E+00  0.6000E-02  0.4000E-02
     -5.780  0.0000E+00  0.0000E+00  0.6000E-02  0.4000E-02
     -5.717  0.1543E-01  0.0000E+00  0.6975E-02  0.4000E-02
     -5.653  0.1622E-01  0.0000E+00  0.8000E-02  0.4000E-02
     -5.590  0.0000E+00  0.0000E+00  0.8000E-02  0.4000E-02
     -5.527  0.0000E+00  0.0000E+00  0.8000E-02  0.4000E-02
     -5.464  0.0000E+00  0.0000E+00  0.8000E-02  0.4000E-02
     -5.401  0.0000E+00  0.0000E+00  0.8000E-02  0.4000E-02
     -5.337  0.0000E+00  0.0000E+00  0.8000E-02  0.4000E-02
     -5.274  0.0000E+00  0.0000E+00  0.8000E-02  0.4000E-02
     -5.211  0.0000E+00  0.0000E+00  0.8000E-02  0.4000E-02
     -5.148  0.0000E+00  0.0000E+00  0.8000E-02  0.4000E-02
     -5.085  0.0000E+00  0.0000E+00  0.8000E-02  0.4000E-02
     -5.021  0.0000E+00  0.0000E+00  0.8000E-02  0.4000E-02
     -4.958  0.0000E+00  0.0000E+00  0.8000E-02  0.4000E-02
     -4.895  0.0000E+00  0.0000E+00  0.8000E-02  0.4000E-02
     -4.832  0.0000E+00  0.0000E+00  0.8000E-02  0.4000E-02
     -4.768  0.0000E+00  0.0000E+00  0.8000E-02  0.4000E-02
     -4.705  0.0000E+00  0.0000E+00  0.8000E-02  0.4000E-02
     -4.642  0.0000E+00  0.0000E+00  0.8000E-02  0.4000E-02
     -4.579  0.0000E+00  0.0000E+00  0.8000E-02  0.4000E-02
     -4.516  0.0000E+00  0.0000E+00  0.8000E-02  0.4000E-02
     -4.452  0.0000E+00  0.0000E+00  0.8000E-02  0.4000E-02
     -4.389  0.0000E+00  0.0000E+00  0.8000E-02  0.4000E-02
     -4.326  0.0000E+00  0.0000E+00  0.8000E-02  0.4000E-02
     -4.263  0.0000E+00  0.0000E+00  0.8000E-02  0.4000E-02
     -4.200  0.0000E+00  0.0000E+00  0.8000E-02  0.4000E-02
     -4.136  0.0000E+00  0.0000E+00  0.8000E-02  0.4000E-02
     -4.073  0.0000E+00  0.0000E+00  0.8000E-02  0.4000E-02
     -4.010  0.0000E+00  0.0000E+00  0.8000E-02  0.4000E-02
     -3.947  0.0000E+00  0.0000E+00  0.8000E-02  0.4000E-02
     -3.884  0.0000E+00  0.0000E+00  0.8000E-02  0.4000E-02
     -3.820  0.0000E+00  0.0000E+00  0.8000E-02  0.4000E-02
     -3.757  0.0000E+00  0.0000E+00  0.8000E-02  0.4000E-02
     -3.694  0.0000E+00  0.0000E+00  0.8000E-02  0.4000E-02
     -3.631  0.0000E+00  0.0000E+00  0.8000E-02  0.4000E-02
     -3.568  0.0000E+00  0.0000E+00  0.8000E-02  0.4000E-02
     -3.504  0.0000E+00  0.0000E+00  0.8000E-02  0.4000E-02
     -3.441  0.0000E+00  0.0000E+00  0.8000E-02  0.4000E-02
     -3.378  0.0000E+00  0.0000E+00  0.8000E-02  0.4000E-02
     -3.315  0.0000E+00  0.0000E+00  0.8000E-02  0.4000E-02
     -3.252  0.0000E+00  0.0000E+00  0.8000E-02  0.4000E-02
     -3.188  0.0000E+00  0.0000E+00  0.8000E-02  0.4000E-02
     -3.125  0.0000E+00  0.0000E+00  0.8000E-02  0.4000E-02
     -3.062  0.0000E+00  0.1827E-04  0.8000E-02  0.4001E-02
     -2.999  0.0000E+00  0.3163E-01  0.8000E-02  0.6000E-02
     -2.936  0.0000E+00  0.0000E+00  0.8000E-02  0.6000E-02
     -2.872  0.0000E+00  0.0000E+00  0.8000E-02  0.6000E-02
     -2.809  0.0000E+00  0.0000E+00  0.8000E-02  0.6000E-02
     -2.746  0.0000E+00  0.0000E+00  0.8000E-02  0.6000E-02
     -2.683  0.0000E+00  0.0000E+00  0.8000E-02  0.6000E-02
     -2.620  0.0000E+00  0.0000E+00  0.8000E-02  0.6000E-02
     -2.556  0.0000E+00  0.0000E+00  0.8000E-02  0.6000E-02
     -2.493  0.0000E+00  0.6159E-12  0.8000E-02  0.6000E-02
     -2.430  0.0000E+00  0.3133E-01  0.8000E-02  0.7980E-02
     -2.367  0.0000E+00  0.3133E-03  0.8000E-02  0.8000E-02
     -2.304  0.0000E+00  0.0000E+00  0.8000E-02  0.8000E-02
     -2.240  0.0000E+00  0.0000E+00  0.8000E-02  0.8000E-02
     -2.177  0.0000E+00  0.0000E+00  0.8000E-02  0.8000E-02
     -2.114  0.0000E+00  0.0000E+00  0.8000E-02  0.8000E-02
     -2.051  0.0000E+00  0.0000E+00  0.8000E-02  0.8000E-02
     -1.988  0.0000E+00  0.0000E+00  0.8000E-02  0.8000E-02
     -1.924  0.0000E+00  0.0000E+00  0.8000E-02  0.8000E-02
     -1.861  0.0000E+00  0.0000E+00  0.8000E-02  0.8000E-02
     -1.798  0.0000E+00  0.0000E+00  0.8000E-02  0.8000E-02
     -1.735  0.0000E+00  0.0000E+00  0.8000E-02  0.8000E-02
     -1.672  0.0000E+00  0.0000E+00  0.8000E-02  0.8000E-02
     -1.608  0.0000E+00  0.0000E+00  0.8000E-02  0.8000E-02
     -1.545  0.0000E+00  0.0000E+00  0.8000E-02  0.8000E-02
     -1.482  0.0000E+00  0.0000E+00  0.8000E-02  0.8000E-02
     -1.419  0.0000E+00  0.0000E+00  0.8000E-02  0.8000E-02
     -1.356  0.0000E+00  0.0000E+00  0.8000E-02  0.8000E-02
     -1.292  0.0000E+00  0.0000E+00  0.8000E-02  0.8000E-02
     -1.229  0.0000E+00  0.0000E+00  0.8000E-02  0.8000E-02
     -1.166  0.0000E+00  0.0000E+00  0.8000E-02  0.8000E-02
     -1.103  0.0000E+00  0.0000E+00  0.8000E-02  0.8000E-02
     -1.040  0.0000E+00  0.0000E+00  0.8000E-02  0.8000E-02
     -0.976  0.0000E+00  0.0000E+00  0.8000E-02  0.8000E-02
     -0.913  0.0000E+00  0.0000E+00  0.8000E-02  0.8000E-02
     -0.850  0.0000E+00  0.0000E+00  0.8000E-02  0.8000E-02
     -0.787  0.0000E+00  0.0000E+00  0.8000E-02  0.8000E-02
     -0.724  0.0000E+00  0.0000E+00  0.8000E-02  0.8000E-02
     -0.660  0.0000E+00  0.0000E+00  0.8000E-02  0.8000E-02
     -0.597  0.0000E+00  0.0000E+00  0.8000E-02  0.8000E-02
     -0.534  0.7824E-06  0.0000E+00  0.8000E-02  0.8000E-02
     -0.471  0.3164E-01  0.0000E+00  0.1000E-01  0.8000E-02
     -0.408  0.0000E+00  0.0000E+00  0.1000E-01  0.8000E-02
     -0.344  0.0000E+00  0.0000E+00  0.1000E-01  0.8000E-02
     -0.281  0.0000E+00  0.0000E+00  0.1000E-01  0.8000E-02
     -0.218  0.0000E+00  0.0000E+00  0.1000E-01  0.8000E-02
     -0.155  0.0000E+00  0.2414E-02  0.1000E-01  0.8153E-02
     -0.091  0.0000E+00  0.2923E-01  0.1000E-01  0.1000E-01
     -0.028  0.0000E+00  0.0000E+00  0.1000E-01  0.1000E-01
      0.035  0.0000E+00  0.0000E+00  0.1000E-01  0.1000E-01
      0.098  0.0000E+00  0.0000E+00  0.1000E-01  0.1000E-01
      0.161  0.2085E-01  0.0000E+00  0.1132E-01  0.1000E-01
      0.225  0.1080E-01  0.0000E+00  0.1200E-01  0.1000E-01
      0.288  0.1897E-07  0.5031E-02  0.1200E-01  0.1032E-01
      0.351  0.3164E-01  0.2661E-01  0.1400E-01  0.1200E-01
      0.414  0.3064E-01  0.2863E-11  0.1594E-01  0.1200E-01
      0.477  0.9997E-03  0.3148E-01  0.1600E-01  0.1399E-01
      0.541  0.0000E+00  0.1824E-04  0.1600E-01  0.1400E-01
      0.604  0.0000E+00  0.3163E-01  0.1600E-01  0.1600E-01
      0.667  0.0000E+00  0.0000E+00  0.1600E-01  0.1600E-01
      0.730  0.0000E+00  0.0000E+00  0.1600E-01  0.1600E-01
      0.793  0.0000E+00  0.0000E+00  0.1600E-01  0.1600E-01
      0.857  0.0000E+00  0.0000E+00  0.1600E-01  0.1600E-01
      0.920  0.0000E+00  0.0000E+00  0.1600E-01  0.1600E-01
      0.983  0.0000E+00  0.0000E+00  0.1600E-01  0.1600E-01
      1.046  0.0000E+00  0.0000E+00  0.1600E-01  0.1600E-01
      1.109  0.0000E+00  0.0000E+00  0.1600E-01  0.1600E-01
      1.173  0.0000E+00  0.0000E+00  0.1600E-01  0.1600E-01
      1.236  0.0000E+00  0.0000E+00  0.1600E-01  0.1600E-01
      1.299  0.0000E+00  0.0000E+00  0.1600E-01  0.1600E-01
      1.362  0.0000E+00  0.0000E+00  0.1600E-01  0.1600E-01
      1.425  0.0000E+00  0.0000E+00  0.1600E-01  0.1600E-01
      1.42536623    -17.53541054  301     -5.63752312      1.00000000
    -17.535  0.0000E+00  0.0000E+00  0.0000E+00  0.0000E+00  0.0000E+00  0.0000E+00  0.0000E+00  0.0000E+00  0.0000E+00  0.0000E+00  0.0000E+00  0.0000E+00  0.0000E+00  0.0000E+00  0.0000E+00  0.0000E+00  0.0000E+00  0.0000E+00
    -17.472  0.0000E+00  0.0000E+00  0.0000E+00  0.0000E+00  0.0000E+00  0.0000E+00  0.0000E+00  0.0000E+00  0.0000E+00  0.0000E+00  0.0000E+00  0.0000E+00  0.0000E+00  0.0000E+00  0.0000E+00  0.0000E+00  0.0000E+00  0.0000E+00
    -17.409  0.0000E+00  0.0000E+00  0.0000E+00  0.0000E+00  0.0000E+00  0.0000E+00  0.0000E+00  0.0000E+00  0.0000E+00  0.0000E+00  0.0000E+00  0.0000E+00  0.0000E+00  0.0000E+00  0.0000E+00  0.0000E+00  0.0000E+00  0.0000E+00
    -17.346  0.0000E+00  0.0000E+00  0.0000E+00  0.0000E+00  0.0000E+00  0.0000E+00  0.0000E+00  0.0000E+00  0.0000E+00  0.0000E+00  0.0000E+00  0.0000E+00  0.0000E+00  0.0000E+00  0.0000E+00  0.0000E+00  0.0000E+00  0.0000E+00
    -17.283  0.0000E+00  0.0000E+00  0.0000E+00  0.0000E+00  0.0000E+00  0.0000E+00  0.0000E+00  0.0000E+00  0.0000E+00  0.0000E+00  0.0000E+00  0.0000E+00  0.0000E+00  0.0000E+00  0.0000E+00  0.0000E+00  0.0000E+00  0.0000E+00
    -17.219  0.0000E+00  0.0000E+00  0.0000E+00  0.0000E+00  0.0000E+00  0.0000E+00  0.0000E+00  0.0000E+00  0.0000E+00  0.0000E+00  0.0000E+00  0.0000E+00  0.0000E+00  0.0000E+00  0.0000E+00  0.0000E+00  0.0000E+00  0.0000E+00
    -17.156  0.0000E+00  0.0000E+00  0.0000E+00  0.0000E+00  0.0000E+00  0.0000E+00  0.0000E+00  0.0000E+00  0.0000E+00  0.0000E+00  0.0000E+00  0.0000E+00  0.0000E+00  0.0000E+00  0.0000E+00  0.0000E+00  0.0000E+00  0.0000E+00
    -17.093  0.0000E+00  0.0000E+00  0.0000E+00  0.0000E+00  0.0000E+00  0.0000E+00  0.0000E+00  0.0000E+00  0.0000E+00  0.0000E+00  0.0000E+00  0.0000E+00  0.0000E+00  0.0000E+00  0.0000E+00  0.0000E+00  0.0000E+00  0.0000E+00
    -17.030  0.0000E+00  0.0000E+00  0.0000E+00  0.0000E+00  0.0000E+00  0.0000E+00  0.0000E+00  0.0000E+00  0.0000E+00  0.0000E+00  0.0000E+00  0.0000E+00  0.0000E+00  0.0000E+00  0.0000E+00  0.0000E+00  0.0000E+00  0.0000E+00
    -16.967  0.0000E+00  0.0000E+00  0.0000E+00  0.0000E+00  0.0000E+00  0.0000E+00  0.0000E+00  0.0000E+00  0.0000E+00  0.0000E+00  0.0000E+00  0.0000E+00  0.0000E+00  0.0000E+00  0.0000E+00  0.0000E+00  0.0000E+00  0.0000E+00
    -16.903  0.0000E+00  0.0000E+00  0.0000E+00  0.0000E+00  0.0000E+00  0.0000E+00  0.0000E+00  0.0000E+00  0.0000E+00  0.0000E+00  0.0000E+00  0.0000E+00  0.0000E+00  0.0000E+00  0.0000E+00  0.0000E+00  0.0000E+00  0.0000E+00
    -16.840  0.0000E+00  0.0000E+00  0.0000E+00  0.0000E+00  0.0000E+00  0.0000E+00  0.0000E+00  0.0000E+00  0.0000E+00  0.0000E+00  0.0000E+00  0.0000E+00  0.0000E+00  0.0000E+00  0.0000E+00  0.0000E+00  0.0000E+00  0.0000E+00
    -16.777  0.0000E+00  0.0000E+00  0.0000E+00  0.0000E+00  0.0000E+00  0.0000E+00  0.0000E+00  0.0000E+00  0.0000E+00  0.0000E+00  0.0000E+00  0.0000E+00  0.0000E+00  0.0000E+00  0.0000E+00  0.0000E+00  0.0000E+00  0.0000E+00
    -16.714  0.1026E-07  0.0000E+00  0.8191E-09  0.0000E+00  0.3318E-30  0.0000E+00  0.9286E-10  0.0000E+00  0.0000E+00  0.0000E+00  0.0000E+00  0.0000E+00  0.0000E+00  0.0000E+00  0.0000E+00  0.0000E+00  0.0000E+00  0.0000E+00
    -16.651  0.1595E+01  0.0000E+00  0.1273E+00  0.0000E+00  0.5159E-22  0.0000E+00  0.1444E-01  0.0000E+00  0.0000E+00  0.0000E+00  0.0000E+00  0.0000E+00  0.0000E+00  0.0000E+00  0.0000E+00  0.0000E+00  0.0000E+00  0.0000E+00
    -16.587  0.0000E+00  0.0000E+00  0.0000E+00  0.0000E+00  0.0000E+00  0.0000E+00  0.0000E+00  0.0000E+00  0.0000E+00  0.0000E+00  0.0000E+00  0.0000E+00  0.0000E+00  0.0000E+00  0.0000E+00  0.0000E+00  0.0000E+00  0.0000E+00
    -16.524  0.0000E+00  0.0000E+00  0.0000E+00  0.0000E+00  0.0000E+00  0.0000E+00  0.0000E+00  0.0000E+00  0.0000E+00  0.0000E+00  0.0000E+00  0.0000E+00  0.0000E+00  0.0000E+00  0.0000E+00  0.0000E+00  0.0000E+00  0.0000E+00
    -16.461  0.0000E+00  0.0000E+00  0.0000E+00  0.0000E+00  0.0000E+00  0.0000E+00  0.0000E+00  0.0000E+00  0.0000E+00  0.0000E+00  0.0000E+00  0.0000E+00  0.0000E+00  0.0000E+00  0.0000E+00  0.0000E+00  0.0000E+00  0.0000E+00
    -16.398  0.0000E+00  0.0000E+00  0.0000E+00  0.0000E+00  0.0000E+00  0.0000E+00  0.0000E+00  0.0000E+00  0.0000E+00  0.0000E+00  0.0000E+00  0.0000E+00  0.0000E+00  0.0000E+00  0.0000E+00  0.0000E+00  0.0000E+00  0.0000E+00
    -16.335  0.0000E+00  0.0000E+00  0.0000E+00  0.0000E+00  0.0000E+00  0.0000E+00  0.0000E+00  0.0000E+00  0.0000E+00  0.0000E+00  0.0000E+00  0.0000E+00  0.0000E+00  0.0000E+00  0.0000E+00  0.0000E+00  0.0000E+00  0.0000E+00
    -16.271  0.0000E+00  0.0000E+00  0.0000E+00  0.0000E+00  0.0000E+00  0.0000E+00  0.0000E+00  0.0000E+00  0.0000E+00  0.0000E+00  0.0000E+00  0.0000E+00  0.0000E+00  0.0000E+00  0.0000E+00  0.0000E+00  0.0000E+00  0.0000E+00
    -16.208  0.0000E+00  0.0000E+00  0.0000E+00  0.0000E+00  0.0000E+00  0.0000E+00  0.0000E+00  0.0000E+00  0.0000E+00  0.0000E+00  0.0000E+00  0.0000E+00  0.0000E+00  0.0000E+00  0.0000E+00  0.0000E+00  0.0000E+00  0.0000E+00
    -16.145  0.0000E+00  0.0000E+00  0.0000E+00  0.0000E+00  0.0000E+00  0.0000E+00  0.0000E+00  0.0000E+00  0.0000E+00  0.0000E+00  0.0000E+00  0.0000E+00  0.0000E+00  0.0000E+00  0.0000E+00  0.0000E+00  0.0000E+00  0.0000E+00
    -16.082  0.0000E+00  0.0000E+00  0.0000E+00  0.0000E+00  0.0000E+00  0.0000E+00  0.0000E+00  0.0000E+00  0.0000E+00  0.0000E+00  0.0000E+00  0.0000E+00  0.0000E+00  0.0000E+00  0.0000E+00  0.0000E+00  0.0000E+00  0.0000E+00
    -16.019  0.0000E+00  0.0000E+00  0.0000E+00  0.0000E+00  0.0000E+00  0.0000E+00  0.0000E+00  0.0000E+00  0.0000E+00  0.0000E+00  0.0000E+00  0.0000E+00  0.0000E+00  0.0000E+00  0.0000E+00  0.0000E+00  0.0000E+00  0.0000E+00
    -15.955  0.0000E+00  0.0000E+00  0.0000E+00  0.0000E+00  0.0000E+00  0.0000E+00  0.0000E+00  0.0000E+00  0.0000E+00  0.0000E+00  0.0000E+00  0.0000E+00  0.0000E+00  0.0000E+00  0.0000E+00  0.0000E+00  0.0000E+00  0.0000E+00
    -15.892  0.0000E+00  0.0000E+00  0.0000E+00  0.0000E+00  0.0000E+00  0.0000E+00  0.0000E+00  0.0000E+00  0.0000E+00  0.0000E+00  0.0000E+00  0.0000E+00  0.0000E+00  0.0000E+00  0.0000E+00  0.0000E+00  0.0000E+00  0.0000E+00
    -15.829  0.0000E+00  0.0000E+00  0.0000E+00  0.0000E+00  0.0000E+00  0.0000E+00  0.0000E+00  0.0000E+00  0.0000E+00  0.0000E+00  0.0000E+00  0.0000E+00  0.0000E+00  0.0000E+00  0.0000E+00  0.0000E+00  0.0000E+00  0.0000E+00
    -15.766  0.0000E+00  0.0000E+00  0.0000E+00  0.0000E+00  0.0000E+00  0.0000E+00  0.0000E+00  0.0000E+00  0.0000E+00  0.0000E+00  0.0000E+00  0.0000E+00  0.0000E+00  0.0000E+00  0.0000E+00  0.0000E+00  0.0000E+00  0.0000E+00
    -15.703  0.0000E+00  0.0000E+00  0.0000E+00  0.0000E+00  0.0000E+00  0.0000E+00  0.0000E+00  0.0000E+00  0.0000E+00  0.0000E+00  0.0000E+00  0.0000E+00  0.0000E+00  0.0000E+00  0.0000E+00  0.0000E+00  0.0000E+00  0.0000E+00
    -15.639  0.0000E+00  0.0000E+00  0.0000E+00  0.0000E+00  0.0000E+00  0.0000E+00  0.0000E+00  0.0000E+00  0.0000E+00  0.0000E+00  0.0000E+00  0.0000E+00  0.0000E+00  0.0000E+00  0.0000E+00  0.0000E+00  0.0000E+00  0.0000E+00
    -15.576  0.0000E+00  0.0000E+00  0.0000E+00  0.0000E+00  0.0000E+00  0.0000E+00  0.0000E+00  0.0000E+00  0.0000E+00  0.0000E+00  0.0000E+00  0.0000E+00  0.0000E+00  0.0000E+00  0.0000E+00  0.0000E+00  0.0000E+00  0.0000E+00
    -15.513  0.0000E+00  0.0000E+00  0.0000E+00  0.0000E+00  0.0000E+00  0.0000E+00  0.0000E+00  0.0000E+00  0.0000E+00  0.0000E+00  0.0000E+00  0.0000E+00  0.0000E+00  0.0000E+00  0.0000E+00  0.0000E+00  0.0000E+00  0.0000E+00
    -15.450  0.0000E+00  0.0000E+00  0.0000E+00  0.0000E+00  0.0000E+00  0.0000E+00  0.0000E+00  0.0000E+00  0.0000E+00  0.0000E+00  0.0000E+00  0.0000E+00  0.0000E+00  0.0000E+00  0.0000E+00  0.0000E+00  0.0000E+00  0.0000E+00
    -15.387  0.0000E+00  0.0000E+00  0.0000E+00  0.0000E+00  0.0000E+00  0.0000E+00  0.0000E+00  0.0000E+00  0.0000E+00  0.0000E+00  0.0000E+00  0.0000E+00  0.0000E+00  0.0000E+00  0.0000E+00  0.0000E+00  0.0000E+00  0.0000E+00
    -15.323  0.0000E+00  0.0000E+00  0.0000E+00  0.0000E+00  0.0000E+00  0.0000E+00  0.0000E+00  0.0000E+00  0.0000E+00  0.0000E+00  0.0000E+00  0.0000E+00  0.0000E+00  0.0000E+00  0.0000E+00  0.0000E+00  0.0000E+00  0.0000E+00
    -15.260  0.0000E+00  0.0000E+00  0.0000E+00  0.0000E+00  0.0000E+00  0.0000E+00  0.0000E+00  0.0000E+00  0.0000E+00  0.0000E+00  0.0000E+00  0.0000E+00  0.0000E+00  0.0000E+00  0.0000E+00  0.0000E+00  0.0000E+00  0.0000E+00
    -15.197  0.0000E+00  0.0000E+00  0.0000E+00  0.0000E+00  0.0000E+00  0.0000E+00  0.0000E+00  0.0000E+00  0.0000E+00  0.0000E+00  0.0000E+00  0.0000E+00  0.0000E+00  0.0000E+00  0.0000E+00  0.0000E+00  0.0000E+00  0.0000E+00
    -15.134  0.0000E+00  0.0000E+00  0.0000E+00  0.0000E+00  0.0000E+00  0.0000E+00  0.0000E+00  0.0000E+00  0.0000E+00  0.0000E+00  0.0000E+00  0.0000E+00  0.0000E+00  0.0000E+00  0.0000E+00  0.0000E+00  0.0000E+00  0.0000E+00
    -15.071  0.0000E+00  0.0000E+00  0.0000E+00  0.0000E+00  0.0000E+00  0.0000E+00  0.0000E+00  0.0000E+00  0.0000E+00  0.0000E+00  0.0000E+00  0.0000E+00  0.0000E+00  0.0000E+00  0.0000E+00  0.0000E+00  0.0000E+00  0.0000E+00
    -15.007  0.0000E+00  0.0000E+00  0.0000E+00  0.0000E+00  0.0000E+00  0.0000E+00  0.0000E+00  0.0000E+00  0.0000E+00  0.0000E+00  0.0000E+00  0.0000E+00  0.0000E+00  0.0000E+00  0.0000E+00  0.0000E+00  0.0000E+00  0.0000E+00
    -14.944  0.0000E+00  0.0000E+00  0.0000E+00  0.0000E+00  0.0000E+00  0.0000E+00  0.0000E+00  0.0000E+00  0.0000E+00  0.0000E+00  0.0000E+00  0.0000E+00  0.0000E+00  0.0000E+00  0.0000E+00  0.0000E+00  0.0000E+00  0.0000E+00
    -14.881  0.0000E+00  0.2284E-07  0.0000E+00  0.1507E-08  0.0000E+00  0.1139E-36  0.0000E+00  0.1771E-09  0.0000E+00  0.0000E+00  0.0000E+00  0.0000E+00  0.0000E+00  0.0000E+00  0.0000E+00  0.0000E+00  0.0000E+00  0.0000E+00
    -14.818  0.0000E+00  0.1984E+01  0.0000E+00  0.1309E+00  0.0000E+00  0.9896E-29  0.0000E+00  0.1538E-01  0.0000E+00  0.0000E+00  0.0000E+00  0.0000E+00  0.0000E+00  0.0000E+00  0.0000E+00  0.0000E+00  0.0000E+00  0.0000E+00
    -14.754  0.0000E+00  0.0000E+00  0.0000E+00  0.0000E+00  0.0000E+00  0.0000E+00  0.0000E+00  0.0000E+00  0.0000E+00  0.0000E+00  0.0000E+00  0.0000E+00  0.0000E+00  0.0000E+00  0.0000E+00  0.0000E+00  0.0000E+00  0.0000E+00
    -14.691  0.0000E+00  0.0000E+00  0.0000E+00  0.0000E+00  0.0000E+00  0.0000E+00  0.0000E+00  0.0000E+00  0.0000E+00  0.0000E+00  0.0000E+00  0.0000E+00  0.0000E+00  0.0000E+00  0.0000E+00  0.0000E+00  0.0000E+00  0.0000E+00
    -14.628  0.0000E+00  0.0000E+00  0.0000E+00  0.0000E+00  0.0000E+00  0.0000E+00  0.0000E+00  0.0000E+00  0.0000E+00  0.0000E+00  0.0000E+00  0.0000E+00  0.0000E+00  0.0000E+00  0.0000E+00  0.0000E+00  0.0000E+00  0.0000E+00
    -14.565  0.0000E+00  0.0000E+00  0.0000E+00  0.0000E+00  0.0000E+00  0.0000E+00  0.0000E+00  0.0000E+00  0.0000E+00  0.0000E+00  0.0000E+00  0.0000E+00  0.0000E+00  0.0000E+00  0.0000E+00  0.0000E+00  0.0000E+00  0.0000E+00
    -14.502  0.0000E+00  0.0000E+00  0.0000E+00  0.0000E+00  0.0000E+00  0.0000E+00  0.0000E+00  0.0000E+00  0.0000E+00  0.0000E+00  0.0000E+00  0.0000E+00  0.0000E+00  0.0000E+00  0.0000E+00  0.0000E+00  0.0000E+00  0.0000E+00
    -14.438  0.0000E+00  0.0000E+00  0.0000E+00  0.0000E+00  0.0000E+00  0.0000E+00  0.0000E+00  0.0000E+00  0.0000E+00  0.0000E+00  0.0000E+00  0.0000E+00  0.0000E+00  0.0000E+00  0.0000E+00  0.0000E+00  0.0000E+00  0.0000E+00
    -14.375  0.0000E+00  0.0000E+00  0.0000E+00  0.0000E+00  0.0000E+00  0.0000E+00  0.0000E+00  0.0000E+00  0.0000E+00  0.0000E+00  0.0000E+00  0.0000E+00  0.0000E+00  0.0000E+00  0.0000E+00  0.0000E+00  0.0000E+00  0.0000E+00