    3    3  500    2
  0.1365333E+04  0.1600000E-08  0.1600000E-08  0.1600000E-08  0.5000000E-15
  1.000000000000000E-004
  CAR 
 unknown system                          
      6      1      8
 
  0.0000000E+00  0.0000000E+00  0.0000000E+00  0.1000000E+01
    1      -16.673557    -14.841391   1.000000   1.000000
    2      -11.108128    -10.613964   1.000000   1.000000
    3       -6.583549     -3.039037   1.000000   0.000000
    4       -5.716305     -2.446468   1.000000   0.000000
    5       -0.505218     -0.144584   0.000000   0.000000
    6        0.158422      0.294781   0.000000   0.000000
    7        0.322055      0.459215   0.000000   0.000000
    8        0.400988      0.563513   0.000000   0.000000
