 vasp.5.4.1 05Feb16 (build Feb 08 2018 09:21:51) complex                        
  
 executed on             LinuxIFC date 2019.11.27  15:59:42
 running on   96 total cores
 distrk:  each k-point on   96 cores,    1 groups
 distr:  one band on NCORES_PER_BAND=  48 cores,    2 groups


--------------------------------------------------------------------------------------------------------


 INCAR:
 POTCAR:    PAW_PBE H 15Jun2001                   
 POTCAR:    PAW_PBE C 08Apr2002                   

 ----------------------------------------------------------------------------- 
|                                                                             |
|           W    W    AA    RRRRR   N    N  II  N    N   GGGG   !!!           |
|           W    W   A  A   R    R  NN   N  II  NN   N  G    G  !!!           |
|           W    W  A    A  R    R  N N  N  II  N N  N  G       !!!           |
|           W WW W  AAAAAA  RRRRR   N  N N  II  N  N N  G  GGG   !            |
|           WW  WW  A    A  R   R   N   NN  II  N   NN  G    G                |
|           W    W  A    A  R    R  N    N  II  N    N   GGGG   !!!           |
|                                                                             |
|      For optimal performance we recommend to set                            |
|        NCORE= 4 - approx SQRT( number of cores)                             |
|      NCORE specifies how many cores store one orbital (NPAR=cpu/NCORE).     |
|      This setting can  greatly improve the performance of VASP for DFT.     |
|      The default, NPAR=number of cores might be grossly inefficient         |
|      on modern multi-core architectures or massively parallel machines.     |
|      Do your own testing !!!!                                               |
|      Unfortunately you need to use the default for GW and RPA calculations. |
|      (for HF NCORE is supported but not extensively tested yet)             |
|                                                                             |
 ----------------------------------------------------------------------------- 

 POTCAR:    PAW_PBE H 15Jun2001                   
   VRHFIN =H: ultrasoft test                                                    
   LEXCH  = PE                                                                  
   EATOM  =    12.4884 eV,    0.9179 Ry                                         
                                                                                
   TITEL  = PAW_PBE H 15Jun2001                                                 
   LULTRA =        F    use ultrasoft PP ?                                      
   IUNSCR =        0    unscreen: 0-lin 1-nonlin 2-no                           
   RPACOR =    0.000    partial core radius                                     
   POMASS =    1.000; ZVAL   =    1.000    mass and valenz                      
   RCORE  =    1.100    outmost cutoff radius                                   
   RWIGS  =    0.700; RWIGS  =    0.370    wigner-seitz radius (au A)           
   ENMAX  =  250.000; ENMIN  =  200.000 eV                                      
   RCLOC  =    0.701    cutoff for local pot                                    
   LCOR   =        T    correct aug charges                                     
   LPAW   =        T    paw PP                                                  
   EAUG   =  400.000                                                            
   RMAX   =    1.123    core radius for proj-oper                               
   RAUG   =    1.200    factor for augmentation sphere                          
   RDEP   =    1.112    radius for radial grids                                 
   RDEPT  =    0.926    core radius for aug-charge                              
                                                                                
   Atomic configuration                                                         
    2 entries                                                                   
     n  l   j            E        occ.                                          
     1  0  0.50        -6.4927   1.0000                                         
     2  1  0.50        -3.4015   0.0000                                         
   Description                                                                  
     l       E           TYP  RCUT    TYP  RCUT                                 
     0     -6.4927494     23  1.100                                             
     0      6.8029130     23  1.100                                             
     1     -4.0817478     23  1.100                                             
  local pseudopotential read in
  atomic valenz-charges read in
  non local Contribution for L=           0  read in
    real space projection operators read in
  non local Contribution for L=           0  read in
    real space projection operators read in
  non local Contribution for L=           1  read in
    real space projection operators read in
    PAW grid and wavefunctions read in
 
   number of l-projection  operators is LMAX  =           3
   number of lm-projection operators is LMMAX =           5
 
 POTCAR:    PAW_PBE C 08Apr2002                   
   VRHFIN =C: s2p2                                                              
   LEXCH  = PE                                                                  
   EATOM  =   147.1560 eV,   10.8157 Ry                                         
                                                                                
   TITEL  = PAW_PBE C 08Apr2002                                                 
   LULTRA =        F    use ultrasoft PP ?                                      
   IUNSCR =        1    unscreen: 0-lin 1-nonlin 2-no                           
   RPACOR =    1.200    partial core radius                                     
   POMASS =   12.011; ZVAL   =    4.000    mass and valenz                      
   RCORE  =    1.500    outmost cutoff radius                                   
   RWIGS  =    1.630; RWIGS  =    0.863    wigner-seitz radius (au A)           
   ENMAX  =  400.000; ENMIN  =  300.000 eV                                      
   ICORE  =        2    local potential                                         
   LCOR   =        T    correct aug charges                                     
   LPAW   =        T    paw PP                                                  
   EAUG   =  644.873                                                            
   DEXC   =    0.000                                                            
   RMAX   =    1.529    core radius for proj-oper                               
   RAUG   =    1.300    factor for augmentation sphere                          
   RDEP   =    1.501    radius for radial grids                                 
   RDEPT  =    1.300    core radius for aug-charge                              
                                                                                
   Atomic configuration                                                         
    4 entries                                                                   
     n  l   j            E        occ.                                          
     1  0  0.50      -273.3789   2.0000                                         
     2  0  0.50       -13.7508   2.0000                                         
     2  1  0.50        -5.2854   2.0000                                         
     3  2  1.50        -5.4423   0.0000                                         
   Description                                                                  
     l       E           TYP  RCUT    TYP  RCUT                                 
     0    -13.7508458     23  1.200                                             
     0     -8.2022199     23  1.200                                             
     1     -5.2854383     23  1.500                                             
     1     34.0145650     23  1.500                                             
     2     -5.4423304      7  1.500                                             
  local pseudopotential read in
  partial core-charges read in
  partial kinetic energy density read in
  atomic valenz-charges read in
  non local Contribution for L=           0  read in
    real space projection operators read in
  non local Contribution for L=           0  read in
    real space projection operators read in
  non local Contribution for L=           1  read in
    real space projection operators read in
  non local Contribution for L=           1  read in
    real space projection operators read in
    PAW grid and wavefunctions read in
 
   number of l-projection  operators is LMAX  =           4
   number of lm-projection operators is LMMAX =           8
 
  PAW_PBE H 15Jun2001                   :
 energy of atom  1       EATOM=  -12.4884
 kinetic energy error for atom=    0.0098 (will be added to EATOM!!)
  PAW_PBE C 08Apr2002                   :
 energy of atom  2       EATOM= -147.1560
 kinetic energy error for atom=    0.0288 (will be added to EATOM!!)
 
 
 POSCAR:  H  C                                   
  positions in cartesian coordinates
  No initial velocities read in
 exchange correlation table for  LEXCH =        8
   RHO(1)=    0.500       N(1)  =     2000
   RHO(2)=  100.500       N(2)  =     4000
 


--------------------------------------------------------------------------------------------------------


 ion  position               nearest neighbor table
   1  0.521  0.446  0.500-   3 1.12
   2  0.521  0.554  0.500-   3 1.12
   3  0.476  0.500  0.500-   1 1.12   2 1.12
 
  LATTYP: Found a simple cubic cell.
 ALAT       =    16.0000000000
  
  Lattice vectors:
  
 A1 = (  16.0000000000,   0.0000000000,   0.0000000000)
 A2 = (   0.0000000000,  16.0000000000,   0.0000000000)
 A3 = (   0.0000000000,   0.0000000000,  16.0000000000)


Analysis of symmetry for initial positions (statically):
=====================================================================
 Subroutine PRICEL returns:
 Original cell was already a primitive cell.
 

 Routine SETGRP: Setting up the symmetry group for a 
 simple cubic supercell.


 Subroutine GETGRP returns: Found  4 space group operations
 (whereof  4 operations were pure point group operations)
 out of a pool of 48 trial point group operations.


The static configuration has the point symmetry C_2v.


Analysis of symmetry for dynamics (positions and initial velocities):
=====================================================================
 Subroutine PRICEL returns:
 Original cell was already a primitive cell.
 

 Routine SETGRP: Setting up the symmetry group for a 
 simple cubic supercell.


 Subroutine GETGRP returns: Found  4 space group operations
 (whereof  4 operations were pure point group operations)
 out of a pool of 48 trial point group operations.


The dynamic configuration has the point symmetry C_2v.


Analysis of structural, dynamic, and magnetic symmetry:
=====================================================================
 Subroutine PRICEL returns:
 Original cell was already a primitive cell.
 

 Routine SETGRP: Setting up the symmetry group for a 
 simple cubic supercell.


 Subroutine GETGRP returns: Found  2 space group operations
 (whereof  2 operations were pure point group operations)
 out of a pool of 48 trial point group operations.


The magnetic configuration has the point symmetry C_1h.


 Subroutine INISYM returns: Found  2 space group operations
 (whereof  2 operations are pure point group operations),
 and found     1 'primitive' translations

 
 
 KPOINTS: KPOINTS created by Atomic Simulation Env

Automatic generation of k-mesh.
Space group operators:
 irot       det(A)        alpha          n_x          n_y          n_z        tau_x        tau_y        tau_z
    1     1.000000     0.000000     1.000000     0.000000     0.000000     0.000000     0.000000     0.000000
    2    -1.000000   180.000000     0.000000     0.000000     1.000000     0.000000     0.000000     0.000000
 
 Subroutine IBZKPT returns following result:
 ===========================================
 
 Found      1 irreducible k-points:
 
 Following reciprocal coordinates:
            Coordinates               Weight
  0.000000  0.000000  0.000000      1.000000
 
 Following cartesian coordinates:
            Coordinates               Weight
  0.000000  0.000000  0.000000      1.000000
 


--------------------------------------------------------------------------------------------------------




 Dimension of arrays:
   k-points           NKPTS =      1   k-points in BZ     NKDIM =      1   number of bands    NBANDS=      8
   number of dos      NEDOS =    301   number of ions     NIONS =      3
   non local maximal  LDIM  =      4   non local SUM 2l+1 LMDIM =      8
   total plane-waves  NPLWV = 512000
   max r-space proj   IRMAX =      1   max aug-charges    IRDMAX=   1674
   dimension x,y,z NGX =    80 NGY =   80 NGZ =   80
   dimension x,y,z NGXF=   160 NGYF=  160 NGZF=  160
   support grid    NGXF=   160 NGYF=  160 NGZF=  160
   ions per type =               2   1
 NGX,Y,Z   is equivalent  to a cutoff of   8.31,  8.31,  8.31 a.u.
 NGXF,Y,Z  is equivalent  to a cutoff of  16.62, 16.62, 16.62 a.u.


 I would recommend the setting:
   dimension x,y,z NGX =    78 NGY =   78 NGZ =   78
 SYSTEM =  unknown system                          
 POSCAR =   H  C                                   

 Startparameter for this run:
   NWRITE =      2    write-flag & timer
   PREC   = normal    normal or accurate (medium, high low for compatibility)
   ISTART =      0    job   : 0-new  1-cont  2-samecut
   ICHARG =      2    charge: 1-file 2-atom 10-const
   ISPIN  =      2    spin polarized calculation?
   LNONCOLLINEAR =      F non collinear calculations
   LSORBIT =      F    spin-orbit coupling
   INIWAV =      1    electr: 0-lowe 1-rand  2-diag
   LASPH  =      F    aspherical Exc in radial PAW
   METAGGA=      F    non-selfconsistent MetaGGA calc.

 Electronic Relaxation 1
   ENCUT  =  400.0 eV  29.40 Ry    5.42 a.u.  26.09 26.09 26.09*2*pi/ulx,y,z
   ENINI  =  400.0     initial cutoff
   ENAUG  =  644.9 eV  augmentation charge cutoff
   NELM   =     60;   NELMIN=  2; NELMDL= -5     # of ELM steps 
   EDIFF  = 0.1E-07   stopping-criterion for ELM
   LREAL  =      F    real-space projection
   NLSPLINE    = F    spline interpolate recip. space projectors
   LCOMPAT=      F    compatible to vasp.4.4
   GGA_COMPAT  = T    GGA compatible to vasp.4.4-vasp.4.6
   LMAXPAW     = -100 max onsite density
   LMAXMIX     =    2 max onsite mixed and CHGCAR
   VOSKOWN=      0    Vosko Wilk Nusair interpolation
   ROPT   =    0.00000   0.00000
 Ionic relaxation
   EDIFFG = -.1E-01   stopping-criterion for IOM
   NSW    =    500    number of steps for IOM
   NBLOCK =      1;   KBLOCK =    500    inner block; outer block 
   IBRION =      2    ionic relax: 0-MD 1-quasi-New 2-CG
   NFREE  =      1    steps in history (QN), initial steepest desc. (CG)
   ISIF   =      2    stress and relaxation
   IWAVPR =     11    prediction:  0-non 1-charg 2-wave 3-comb
   ISYM   =      2    0-nonsym 1-usesym 2-fastsym
   LCORR  =      T    Harris-Foulkes like correction to forces

   POTIM  = 0.5000    time-step for ionic-motion
   TEIN   =    0.0    initial temperature
   TEBEG  =    0.0;   TEEND  =   0.0 temperature during run
   SMASS  =  -3.00    Nose mass-parameter (am)
   estimated Nose-frequenzy (Omega)   =  0.10E-29 period in steps =****** mass=  -0.585E-26a.u.
   SCALEE = 1.0000    scale energy and forces
   NPACO  =    256;   APACO  = 16.0  distance and # of slots for P.C.
   PSTRESS=    0.0 pullay stress

  Mass of Ions in am
   POMASS =   1.00 12.01
  Ionic Valenz
   ZVAL   =   1.00  4.00
  Atomic Wigner-Seitz radii
   RWIGS  =  -1.00 -1.00
  virtual crystal weights 
   VCA    =   1.00  1.00
   NELECT =       6.0000    total number of electrons
   NUPDOWN=      -1.0000    fix difference up-down

 DOS related values:
   EMIN   =  10.00;   EMAX   =-10.00  energy-range for DOS
   EFERMI =   0.00
   ISMEAR =     0;   SIGMA  =   0.01  broadening in eV -4-tet -1-fermi 0-gaus

 Electronic relaxation 2 (details)
   IALGO  =     38    algorithm
   LDIAG  =      T    sub-space diagonalisation (order eigenvalues)
   LSUBROT=      F    optimize rotation matrix (better conditioning)
   TURBO    =      0    0=normal 1=particle mesh
   IRESTART =      0    0=no restart 2=restart with 2 vectors
   NREBOOT  =      0    no. of reboots
   NMIN     =      0    reboot dimension
   EREF     =   0.00    reference energy to select bands
   IMIX   =      4    mixing-type and parameters
     AMIX     =   0.40;   BMIX     =  1.00
     AMIX_MAG =   1.60;   BMIX_MAG =  1.00
     AMIN     =   0.10
     WC   =   100.;   INIMIX=   1;  MIXPRE=   1;  MAXMIX= -45

 Intra band minimization:
   WEIMIN = 0.0010     energy-eigenvalue tresh-hold
   EBREAK =  0.31E-09  absolut break condition
   DEPER  =   0.30     relativ break condition  

   TIME   =   0.40     timestep for ELM

  volume/ion in A,a.u.               =    1365.33      9213.72
  Fermi-wavevector in a.u.,A,eV,Ry     =   0.185925  0.351348  0.470329  0.034568
  Thomas-Fermi vector in A             =   0.919440
 
 Write flags
   LWAVE  =      F    write WAVECAR
   LCHARG =      F    write CHGCAR
   LVTOT  =      F    write LOCPOT, total local potential
   LVHAR  =      F    write LOCPOT, Hartree potential only
   LELF   =      F    write electronic localiz. function (ELF)
   LORBIT =     11    0 simple, 1 ext, 2 COOP (PROOUT)


 Dipole corrections
   LMONO  =      F    monopole corrections only (constant potential shift)
   LDIPOL =      F    correct potential (dipole corrections)
   IDIPOL =      0    1-x, 2-y, 3-z, 4-all directions 
   EPSILON=  1.0000000 bulk dielectric constant

 Exchange correlation treatment:
   GGA     =    --    GGA type
   LEXCH   =     8    internal setting for exchange type
   VOSKOWN=      0    Vosko Wilk Nusair interpolation
   LHFCALC =     F    Hartree Fock is set to
   LHFONE  =     F    Hartree Fock one center treatment
   AEXX    =    0.0000 exact exchange contribution

 Linear response parameters
   LEPSILON=     F    determine dielectric tensor
   LRPA    =     F    only Hartree local field effects (RPA)
   LNABLA  =     F    use nabla operator in PAW spheres
   LVEL    =     F    velocity operator in full k-point grid
   LINTERFAST=   F  fast interpolation
   KINTER  =     0    interpolate to denser k-point grid
   CSHIFT  =0.1000    complex shift for real part using Kramers Kronig
   OMEGAMAX=  -1.0    maximum frequency
   DEG_THRESHOLD= 0.2000000E-02 threshold for treating states as degnerate
   RTIME   =    0.100 relaxation time in fs

 Orbital magnetization related:
   ORBITALMAG=     F  switch on orbital magnetization
   LCHIMAG   =     F  perturbation theory with respect to B field
   DQ        =  0.001000  dq finite difference perturbation B field



--------------------------------------------------------------------------------------------------------


 conjugate gradient relaxation of ions
 charge density and potential will be updated during run
 spin polarized calculation
 Variant of blocked Davidson
 Davidson routine will perform the subspace rotation
 perform sub-space diagonalisation
    after iterative eigenvector-optimisation
 modified Broyden-mixing scheme, WC =      100.0
 initial mixing is a Kerker type mixing with AMIX =  0.4000 and BMIX =      1.0000
 Hartree-type preconditioning will be used
 using additional bands            5
 reciprocal scheme for non local part
 use partial core corrections
 calculate Harris-corrections to forces 
   (improved forces if not selfconsistent)
 use gradient corrections 
 use of overlap-Matrix (Vanderbilt PP)
 Gauss-broadening in eV      SIGMA  =   0.01


--------------------------------------------------------------------------------------------------------


  energy-cutoff  :      400.00
  volume of cell :     4096.00
      direct lattice vectors                 reciprocal lattice vectors
    16.000000000  0.000000000  0.000000000     0.062500000  0.000000000  0.000000000
     0.000000000 16.000000000  0.000000000     0.000000000  0.062500000  0.000000000
     0.000000000  0.000000000 16.000000000     0.000000000  0.000000000  0.062500000

  length of vectors
    16.000000000 16.000000000 16.000000000     0.062500000  0.062500000  0.062500000


 
 k-points in units of 2pi/SCALE and weight: KPOINTS created by Atomic Simulation Env
   0.00000000  0.00000000  0.00000000       1.000
 
 k-points in reciprocal lattice and weights: KPOINTS created by Atomic Simulation Env
   0.00000000  0.00000000  0.00000000       1.000
 
 position of ions in fractional coordinates (direct lattice) 
   0.52115629  0.44589005  0.50000000
   0.52115629  0.55410995  0.50000000
   0.47631495  0.50000000  0.50000000
 
 position of ions in cartesian coordinates  (Angst):
   8.33850070  7.13424084  8.00000000
   8.33850070  8.86575916  8.00000000
   7.62103920  8.00000000  8.00000000
 


--------------------------------------------------------------------------------------------------------


 k-point  1 :   0.0000 0.0000 0.0000  plane waves:   74269

 maximum and minimum number of plane-waves per node :      1554     1537

 maximum number of plane-waves:     74269
 maximum index in each direction: 
   IXMAX=   26   IYMAX=   26   IZMAX=   26
   IXMIN=  -26   IYMIN=  -26   IZMIN=  -26

 WARNING: aliasing errors must be expected set NGX to 106 to avoid them
 WARNING: aliasing errors must be expected set NGY to 106 to avoid them
 WARNING: aliasing errors must be expected set NGZ to 106 to avoid them
 aliasing errors are usually negligible using standard VASP settings
 and one can safely disregard these warnings

 parallel 3D FFT for wavefunctions:
    minimum data exchange during FFTs selected (reduces bandwidth)
 parallel 3D FFT for charge:
    minimum data exchange during FFTs selected (reduces bandwidth)


 total amount of memory used by VASP on root node    37724. kBytes
========================================================================

   base      :      30000. kBytes
   nonl-proj :        272. kBytes
   fftplans  :       2081. kBytes
   grid      :       5166. kBytes
   one-center:          6. kBytes
   wavefun   :        199. kBytes
 
     INWAV:  cpu time    0.0001: real time    0.0001
 Broyden mixing: mesh for mixing (old mesh)
   NGX = 53   NGY = 53   NGZ = 53
  (NGX  =160   NGY  =160   NGZ  =160)
  gives a total of 148877 points

 initial charge density was supplied:
 charge density of overlapping atoms calculated
 number of electron       6.0000000 magnetization       2.0000000
 keeping initial charge density in first step


--------------------------------------------------------------------------------------------------------


 Maximum index for augmentation-charges            0 (set IRDMAX)


--------------------------------------------------------------------------------------------------------


 First call to EWALD:  gamma=   0.111
 Maximum number of real-space cells 3x 3x 3
 Maximum number of reciprocal cells 3x 3x 3

 FEWALD executed in parallel
    FEWALD:  cpu time    0.0036: real time    0.0036


----------------------------------------- Iteration    1(   1)  ---------------------------------------


    POTLOK:  cpu time    1.0477: real time    1.0568
    SETDIJ:  cpu time    0.0072: real time    0.0072
     EDDAV:  cpu time    0.2839: real time    0.2866
       DOS:  cpu time    0.0021: real time    0.0021
    --------------------------------------------
      LOOP:  cpu time    1.3497: real time    1.3704

 eigenvalue-minimisations  :    48
 total energy-change (2. order) : 0.3777846E+02  (-0.9130630E+02)
 number of electron       6.0000000 magnetization       2.0000000
 augmentation part        6.0000000 magnetization       2.0000000

 Free energy of the ion-electron system (eV)
  ---------------------------------------------------
  alpha Z        PSCENC =         0.03722024
  Ewald energy   TEWEN  =        64.90209267
  -Hartree energ DENC   =      -183.34931630
  -exchange      EXHF   =         0.00000000
  -V(xc)+E(xc)   XCENC  =        24.26329040
  PAW double counting   =        99.73956800      -99.78843352
  entropy T*S    EENTRO =        -0.00000000
  eigenvalues    EBANDS =       -40.11045407
  atomic energy  EATOM  =       172.08448920
  Solvation  Ediel_sol  =         0.00000000
  ---------------------------------------------------
  free energy    TOTEN  =        37.77845661 eV

  energy without entropy =       37.77845661  energy(sigma->0) =       37.77845661


--------------------------------------------------------------------------------------------------------




----------------------------------------- Iteration    1(   2)  ---------------------------------------


     EDDAV:  cpu time    0.2675: real time    0.2694
       DOS:  cpu time    0.0032: real time    0.0032
    --------------------------------------------
      LOOP:  cpu time    0.2775: real time    0.2813

 eigenvalue-minimisations  :    56
 total energy-change (2. order) :-0.2853423E+02  (-0.2760934E+02)
 number of electron       6.0000000 magnetization       2.0000000
 augmentation part        6.0000000 magnetization       2.0000000

 Free energy of the ion-electron system (eV)
  ---------------------------------------------------
  alpha Z        PSCENC =         0.03722024
  Ewald energy   TEWEN  =        64.90209267
  -Hartree energ DENC   =      -183.34931630
  -exchange      EXHF   =         0.00000000
  -V(xc)+E(xc)   XCENC  =        24.26329040
  PAW double counting   =        99.73956800      -99.78843352
  entropy T*S    EENTRO =        -0.00000000
  eigenvalues    EBANDS =       -68.64468711
  atomic energy  EATOM  =       172.08448920
  Solvation  Ediel_sol  =         0.00000000
  ---------------------------------------------------
  free energy    TOTEN  =         9.24422357 eV

  energy without entropy =        9.24422357  energy(sigma->0) =        9.24422357


--------------------------------------------------------------------------------------------------------




----------------------------------------- Iteration    1(   3)  ---------------------------------------


     EDDAV:  cpu time    0.2413: real time    0.2442
       DOS:  cpu time    0.0024: real time    0.0025
    --------------------------------------------
      LOOP:  cpu time    0.2502: real time    0.2547

 eigenvalue-minimisations  :    48
 total energy-change (2. order) :-0.7900946E+01  (-0.7429022E+01)
 number of electron       6.0000000 magnetization       2.0000000
 augmentation part        6.0000000 magnetization       2.0000000

 Free energy of the ion-electron system (eV)
  ---------------------------------------------------
  alpha Z        PSCENC =         0.03722024
  Ewald energy   TEWEN  =        64.90209267
  -Hartree energ DENC   =      -183.34931630
  -exchange      EXHF   =         0.00000000
  -V(xc)+E(xc)   XCENC  =        24.26329040
  PAW double counting   =        99.73956800      -99.78843352
  entropy T*S    EENTRO =        -0.00000000
  eigenvalues    EBANDS =       -76.54563313
  atomic energy  EATOM  =       172.08448920
  Solvation  Ediel_sol  =         0.00000000
  ---------------------------------------------------
  free energy    TOTEN  =         1.34327754 eV

  energy without entropy =        1.34327754  energy(sigma->0) =        1.34327754


--------------------------------------------------------------------------------------------------------




----------------------------------------- Iteration    1(   4)  ---------------------------------------


     EDDAV:  cpu time    0.1768: real time    0.1775
       DOS:  cpu time    0.0024: real time    0.0024
    --------------------------------------------
      LOOP:  cpu time    0.1853: real time    0.1872

 eigenvalue-minimisations  :    32
 total energy-change (2. order) :-0.6590541E+00  (-0.6590541E+00)
 number of electron       6.0000000 magnetization       2.0000000
 augmentation part        6.0000000 magnetization       2.0000000

 Free energy of the ion-electron system (eV)
  ---------------------------------------------------
  alpha Z        PSCENC =         0.03722024
  Ewald energy   TEWEN  =        64.90209267
  -Hartree energ DENC   =      -183.34931630
  -exchange      EXHF   =         0.00000000
  -V(xc)+E(xc)   XCENC  =        24.26329040
  PAW double counting   =        99.73956800      -99.78843352
  entropy T*S    EENTRO =        -0.00000000
  eigenvalues    EBANDS =       -77.20468727
  atomic energy  EATOM  =       172.08448920
  Solvation  Ediel_sol  =         0.00000000
  ---------------------------------------------------
  free energy    TOTEN  =         0.68422341 eV

  energy without entropy =        0.68422341  energy(sigma->0) =        0.68422341


--------------------------------------------------------------------------------------------------------




----------------------------------------- Iteration    1(   5)  ---------------------------------------


     EDDAV:  cpu time    0.3028: real time    0.3039
       DOS:  cpu time    0.0034: real time    0.0034
    CHARGE:  cpu time    0.5538: real time    0.5557
    MIXING:  cpu time    0.0066: real time    0.0067
    --------------------------------------------
      LOOP:  cpu time    0.8727: real time    0.8770

 eigenvalue-minimisations  :    64
 total energy-change (2. order) :-0.1556463E-01  (-0.1556463E-01)
 number of electron       5.9999997 magnetization       1.9999999
 augmentation part        0.0859968 magnetization       0.1084173

 Broyden mixing:
  rms(total) = 0.97177E+00    rms(broyden)= 0.97092E+00
  rms(prec ) = 0.10301E+01
  weight for this iteration     100.00

 Free energy of the ion-electron system (eV)
  ---------------------------------------------------
  alpha Z        PSCENC =         0.03722024
  Ewald energy   TEWEN  =        64.90209267
  -Hartree energ DENC   =      -183.34931630
  -exchange      EXHF   =         0.00000000
  -V(xc)+E(xc)   XCENC  =        24.26329040
  PAW double counting   =        99.73956800      -99.78843352
  entropy T*S    EENTRO =        -0.00000000
  eigenvalues    EBANDS =       -77.22025190
  atomic energy  EATOM  =       172.08448920
  Solvation  Ediel_sol  =         0.00000000
  ---------------------------------------------------
  free energy    TOTEN  =         0.66865878 eV

  energy without entropy =        0.66865878  energy(sigma->0) =        0.66865878


--------------------------------------------------------------------------------------------------------




----------------------------------------- Iteration    1(   6)  ---------------------------------------


    POTLOK:  cpu time    0.9842: real time    0.9874
    SETDIJ:  cpu time    0.0064: real time    0.0064
     EDDAV:  cpu time    0.2640: real time    0.2648
       DOS:  cpu time    0.0030: real time    0.0030
    CHARGE:  cpu time    0.4997: real time    0.5012
    MIXING:  cpu time    0.0076: real time    0.0076
    --------------------------------------------
      LOOP:  cpu time    1.7696: real time    1.7771

 eigenvalue-minimisations  :    32
 total energy-change (2. order) :-0.9561916E+01  (-0.3874549E+01)
 number of electron       5.9999994 magnetization       1.9999999
 augmentation part        0.1118269 magnetization       0.0780057

 Broyden mixing:
  rms(total) = 0.56817E+00    rms(broyden)= 0.56775E+00
  rms(prec ) = 0.60786E+00
  weight for this iteration     100.00

 eigenvalues of (default mixing * dielectric matrix)
  average eigenvalue GAMMA=   0.7692
  0.7692

 Free energy of the ion-electron system (eV)
  ---------------------------------------------------
  alpha Z        PSCENC =         0.03722024
  Ewald energy   TEWEN  =        64.90209267
  -Hartree energ DENC   =      -191.21254735
  -exchange      EXHF   =         0.00000000
  -V(xc)+E(xc)   XCENC  =        19.44768820
  PAW double counting   =       161.41252276     -162.01659968
  entropy T*S    EENTRO =        -0.00000000
  eigenvalues    EBANDS =       -73.54812339
  atomic energy  EATOM  =       172.08448920
  Solvation  Ediel_sol  =         0.00000000
  ---------------------------------------------------
  free energy    TOTEN  =        -8.89325735 eV

  energy without entropy =       -8.89325735  energy(sigma->0) =       -8.89325735


--------------------------------------------------------------------------------------------------------




----------------------------------------- Iteration    1(   7)  ---------------------------------------


    POTLOK:  cpu time    0.9589: real time    0.9630
    SETDIJ:  cpu time    0.0071: real time    0.0071
     EDDAV:  cpu time    0.2727: real time    0.2736
       DOS:  cpu time    0.0032: real time    0.0032
    CHARGE:  cpu time    0.5233: real time    0.5250
    MIXING:  cpu time    0.0086: real time    0.0087
    --------------------------------------------
      LOOP:  cpu time    1.7789: real time    1.7873

 eigenvalue-minimisations  :    56
 total energy-change (2. order) :-0.1687141E+01  (-0.2620788E+00)
 number of electron       5.9999993 magnetization       2.0000000
 augmentation part        0.1134456 magnetization       0.0735317

 Broyden mixing:
  rms(total) = 0.31839E+00    rms(broyden)= 0.31828E+00
  rms(prec ) = 0.35561E+00
  weight for this iteration     100.00

 eigenvalues of (default mixing * dielectric matrix)
  average eigenvalue GAMMA=   0.9386
  0.9386  0.9386

 Free energy of the ion-electron system (eV)
  ---------------------------------------------------
  alpha Z        PSCENC =         0.03722024
  Ewald energy   TEWEN  =        64.90209267
  -Hartree energ DENC   =      -194.43217553
  -exchange      EXHF   =         0.00000000
  -V(xc)+E(xc)   XCENC  =        18.68992565
  PAW double counting   =       191.15622777     -191.80991229
  entropy T*S    EENTRO =        -0.00000000
  eigenvalues    EBANDS =       -71.20826648
  atomic energy  EATOM  =       172.08448920
  Solvation  Ediel_sol  =         0.00000000
  ---------------------------------------------------
  free energy    TOTEN  =       -10.58039878 eV

  energy without entropy =      -10.58039878  energy(sigma->0) =      -10.58039878


--------------------------------------------------------------------------------------------------------




----------------------------------------- Iteration    1(   8)  ---------------------------------------


    POTLOK:  cpu time    0.9783: real time    0.9863
    SETDIJ:  cpu time    0.0064: real time    0.0064
     EDDAV:  cpu time    0.2717: real time    0.2728
       DOS:  cpu time    0.0024: real time    0.0024
    CHARGE:  cpu time    0.5386: real time    0.5402
    MIXING:  cpu time    0.0102: real time    0.0102
    --------------------------------------------
      LOOP:  cpu time    1.8125: real time    1.8247

 eigenvalue-minimisations  :    56
 total energy-change (2. order) :-0.4345481E+00  (-0.6556839E-01)
 number of electron       5.9999994 magnetization       2.0000000
 augmentation part        0.1113601 magnetization       0.0735659

 Broyden mixing:
  rms(total) = 0.16325E+00    rms(broyden)= 0.16323E+00
  rms(prec ) = 0.18021E+00
  weight for this iteration     100.00

 eigenvalues of (default mixing * dielectric matrix)
  average eigenvalue GAMMA=   1.0946
  1.2758  1.2758  0.7322

 Free energy of the ion-electron system (eV)
  ---------------------------------------------------
  alpha Z        PSCENC =         0.03722024
  Ewald energy   TEWEN  =        64.90209267
  -Hartree energ DENC   =      -197.55992371
  -exchange      EXHF   =         0.00000000
  -V(xc)+E(xc)   XCENC  =        18.41308457
  PAW double counting   =       221.95198317     -222.60337578
  entropy T*S    EENTRO =        -0.00000000
  eigenvalues    EBANDS =       -68.24051718
  atomic energy  EATOM  =       172.08448920
  Solvation  Ediel_sol  =         0.00000000
  ---------------------------------------------------
  free energy    TOTEN  =       -11.01494683 eV

  energy without entropy =      -11.01494683  energy(sigma->0) =      -11.01494683


--------------------------------------------------------------------------------------------------------




----------------------------------------- Iteration    1(   9)  ---------------------------------------


    POTLOK:  cpu time    0.9592: real time    0.9644
    SETDIJ:  cpu time    0.0062: real time    0.0062
     EDDAV:  cpu time    0.1807: real time    0.1814
       DOS:  cpu time    0.0029: real time    0.0029
    CHARGE:  cpu time    0.4986: real time    0.5002
    MIXING:  cpu time    0.0100: real time    0.0100
    --------------------------------------------
      LOOP:  cpu time    1.6618: real time    1.6719

 eigenvalue-minimisations  :    32
 total energy-change (2. order) :-0.3375178E+00  (-0.2965862E-01)
 number of electron       5.9999994 magnetization       2.0000000
 augmentation part        0.1091708 magnetization       0.0741943

 Broyden mixing:
  rms(total) = 0.43344E-01    rms(broyden)= 0.43304E-01
  rms(prec ) = 0.48388E-01
  weight for this iteration     100.00

 eigenvalues of (default mixing * dielectric matrix)
  average eigenvalue GAMMA=   1.1394
  1.8529  1.0878  0.8874  0.7297

 Free energy of the ion-electron system (eV)
  ---------------------------------------------------
  alpha Z        PSCENC =         0.03722024
  Ewald energy   TEWEN  =        64.90209267
  -Hartree energ DENC   =      -200.13600396
  -exchange      EXHF   =         0.00000000
  -V(xc)+E(xc)   XCENC  =        18.29991739
  PAW double counting   =       249.99577304     -250.66923759
  entropy T*S    EENTRO =        -0.00000000
  eigenvalues    EBANDS =       -65.86671564
  atomic energy  EATOM  =       172.08448920
  Solvation  Ediel_sol  =         0.00000000
  ---------------------------------------------------
  free energy    TOTEN  =       -11.35246465 eV

  energy without entropy =      -11.35246465  energy(sigma->0) =      -11.35246465


--------------------------------------------------------------------------------------------------------




----------------------------------------- Iteration    1(  10)  ---------------------------------------


    POTLOK:  cpu time    0.9587: real time    0.9639
    SETDIJ:  cpu time    0.0064: real time    0.0064
     EDDAV:  cpu time    0.2395: real time    0.2405
       DOS:  cpu time    0.0025: real time    0.0025
    CHARGE:  cpu time    0.5228: real time    0.5244
    MIXING:  cpu time    0.0107: real time    0.0107
    --------------------------------------------
      LOOP:  cpu time    1.7445: real time    1.7548

 eigenvalue-minimisations  :    48
 total energy-change (2. order) :-0.7875717E-01  (-0.3434539E-02)
 number of electron       5.9999994 magnetization       2.0000000
 augmentation part        0.1082904 magnetization       0.0738386

 Broyden mixing:
  rms(total) = 0.22884E-01    rms(broyden)= 0.22872E-01
  rms(prec ) = 0.27060E-01
  weight for this iteration     100.00

 eigenvalues of (default mixing * dielectric matrix)
  average eigenvalue GAMMA=   1.0886
  1.9000  1.1584  0.8692  0.8692  0.6463

 Free energy of the ion-electron system (eV)
  ---------------------------------------------------
  alpha Z        PSCENC =         0.03722024
  Ewald energy   TEWEN  =        64.90209267
  -Hartree energ DENC   =      -200.79798829
  -exchange      EXHF   =         0.00000000
  -V(xc)+E(xc)   XCENC  =        18.29038573
  PAW double counting   =       257.21215763     -257.87719715
  entropy T*S    EENTRO =        -0.00000000
  eigenvalues    EBANDS =       -65.28238185
  atomic energy  EATOM  =       172.08448920
  Solvation  Ediel_sol  =         0.00000000
  ---------------------------------------------------
  free energy    TOTEN  =       -11.43122182 eV

  energy without entropy =      -11.43122182  energy(sigma->0) =      -11.43122182


--------------------------------------------------------------------------------------------------------




----------------------------------------- Iteration    1(  11)  ---------------------------------------


    POTLOK:  cpu time    0.9536: real time    0.9581
    SETDIJ:  cpu time    0.0064: real time    0.0064
     EDDAV:  cpu time    0.2664: real time    0.2676
       DOS:  cpu time    0.0022: real time    0.0022
    CHARGE:  cpu time    0.4978: real time    0.4992
    MIXING:  cpu time    0.0111: real time    0.0112
    --------------------------------------------
      LOOP:  cpu time    1.7423: real time    1.7512

 eigenvalue-minimisations  :    56
 total energy-change (2. order) :-0.3830627E-01  (-0.1929556E-03)
 number of electron       5.9999994 magnetization       2.0000000
 augmentation part        0.1082110 magnetization       0.0737342

 Broyden mixing:
  rms(total) = 0.13295E-01    rms(broyden)= 0.13293E-01
  rms(prec ) = 0.17389E-01
  weight for this iteration     100.00

 eigenvalues of (default mixing * dielectric matrix)
  average eigenvalue GAMMA=   1.1906
  1.8655  1.8655  1.0583  0.9651  0.7565  0.6329

 Free energy of the ion-electron system (eV)
  ---------------------------------------------------
  alpha Z        PSCENC =         0.03722024
  Ewald energy   TEWEN  =        64.90209267
  -Hartree energ DENC   =      -200.96239154
  -exchange      EXHF   =         0.00000000
  -V(xc)+E(xc)   XCENC  =        18.25894672
  PAW double counting   =       256.85118180     -257.51865664
  entropy T*S    EENTRO =        -0.00000000
  eigenvalues    EBANDS =       -65.12241053
  atomic energy  EATOM  =       172.08448920
  Solvation  Ediel_sol  =         0.00000000
  ---------------------------------------------------
  free energy    TOTEN  =       -11.46952809 eV

  energy without entropy =      -11.46952809  energy(sigma->0) =      -11.46952809


--------------------------------------------------------------------------------------------------------




----------------------------------------- Iteration    1(  12)  ---------------------------------------


    POTLOK:  cpu time    0.9467: real time    0.9511
    SETDIJ:  cpu time    0.0064: real time    0.0064
     EDDAV:  cpu time    0.2352: real time    0.2379
       DOS:  cpu time    0.0032: real time    0.0032
    CHARGE:  cpu time    0.5399: real time    0.5457
    MIXING:  cpu time    0.0107: real time    0.0107
    --------------------------------------------
      LOOP:  cpu time    1.7461: real time    1.7613

 eigenvalue-minimisations  :    48
 total energy-change (2. order) :-0.6210467E-01  (-0.1971020E-03)
 number of electron       5.9999994 magnetization       2.0000000
 augmentation part        0.1081856 magnetization       0.0737065

 Broyden mixing:
  rms(total) = 0.56844E-02    rms(broyden)= 0.56838E-02
  rms(prec ) = 0.90711E-02
  weight for this iteration     100.00

 eigenvalues of (default mixing * dielectric matrix)
  average eigenvalue GAMMA=   1.2256
  2.3705  1.9717  1.0979  0.9723  0.8633  0.6767  0.6263

 Free energy of the ion-electron system (eV)
  ---------------------------------------------------
  alpha Z        PSCENC =         0.03722024
  Ewald energy   TEWEN  =        64.90209267
  -Hartree energ DENC   =      -201.25277777
  -exchange      EXHF   =         0.00000000
  -V(xc)+E(xc)   XCENC  =        18.21304175
  PAW double counting   =       256.49576478     -257.16007172
  entropy T*S    EENTRO =        -0.00000000
  eigenvalues    EBANDS =       -64.85139190
  atomic energy  EATOM  =       172.08448920
  Solvation  Ediel_sol  =         0.00000000
  ---------------------------------------------------
  free energy    TOTEN  =       -11.53163276 eV

  energy without entropy =      -11.53163276  energy(sigma->0) =      -11.53163276


--------------------------------------------------------------------------------------------------------




----------------------------------------- Iteration    1(  13)  ---------------------------------------


    POTLOK:  cpu time    0.9431: real time    0.9502
    SETDIJ:  cpu time    0.0064: real time    0.0064
     EDDAV:  cpu time    0.2428: real time    0.2438
       DOS:  cpu time    0.0029: real time    0.0029
    CHARGE:  cpu time    0.5254: real time    0.5271
    MIXING:  cpu time    0.0113: real time    0.0113
    --------------------------------------------
      LOOP:  cpu time    1.7365: real time    1.7484

 eigenvalue-minimisations  :    48
 total energy-change (2. order) :-0.2291754E-01  (-0.3782810E-04)
 number of electron       5.9999994 magnetization       2.0000000
 augmentation part        0.1081862 magnetization       0.0737080

 Broyden mixing:
  rms(total) = 0.34814E-02    rms(broyden)= 0.34812E-02
  rms(prec ) = 0.65762E-02
  weight for this iteration     100.00

 eigenvalues of (default mixing * dielectric matrix)
  average eigenvalue GAMMA=   1.2353
  2.4776  2.0648  1.1941  1.1941  0.8445  0.8445  0.6590  0.6040

 Free energy of the ion-electron system (eV)
  ---------------------------------------------------
  alpha Z        PSCENC =         0.03722024
  Ewald energy   TEWEN  =        64.90209267
  -Hartree energ DENC   =      -201.39618660
  -exchange      EXHF   =         0.00000000
  -V(xc)+E(xc)   XCENC  =        18.19814074
  PAW double counting   =       256.05461234     -256.71909309
  entropy T*S    EENTRO =        -0.00000000
  eigenvalues    EBANDS =       -64.71582579
  atomic energy  EATOM  =       172.08448920
  Solvation  Ediel_sol  =         0.00000000
  ---------------------------------------------------
  free energy    TOTEN  =       -11.55455030 eV

  energy without entropy =      -11.55455030  energy(sigma->0) =      -11.55455030


--------------------------------------------------------------------------------------------------------




----------------------------------------- Iteration    1(  14)  ---------------------------------------


    POTLOK:  cpu time    0.9533: real time    0.9617
    SETDIJ:  cpu time    0.0060: real time    0.0060
     EDDAV:  cpu time    0.1790: real time    0.1797
       DOS:  cpu time    0.0020: real time    0.0020
    CHARGE:  cpu time    0.5457: real time    0.5474
    MIXING:  cpu time    0.0127: real time    0.0127
    --------------------------------------------
      LOOP:  cpu time    1.7032: real time    1.7157

 eigenvalue-minimisations  :    32
 total energy-change (2. order) :-0.1921791E-01  (-0.2431190E-04)
 number of electron       5.9999994 magnetization       2.0000000
 augmentation part        0.1081328 magnetization       0.0736734

 Broyden mixing:
  rms(total) = 0.21340E-02    rms(broyden)= 0.21338E-02
  rms(prec ) = 0.47099E-02
  weight for this iteration     100.00

 eigenvalues of (default mixing * dielectric matrix)
  average eigenvalue GAMMA=   1.3274
  2.7796  2.3941  1.6525  1.2430  0.9235  0.9235  0.7493  0.6813  0.5998

 Free energy of the ion-electron system (eV)
  ---------------------------------------------------
  alpha Z        PSCENC =         0.03722024
  Ewald energy   TEWEN  =        64.90209267
  -Hartree energ DENC   =      -201.51764559
  -exchange      EXHF   =         0.00000000
  -V(xc)+E(xc)   XCENC  =        18.18368946
  PAW double counting   =       255.46102455     -256.12563573
  entropy T*S    EENTRO =        -0.00000000
  eigenvalues    EBANDS =       -64.59900301
  atomic energy  EATOM  =       172.08448920
  Solvation  Ediel_sol  =         0.00000000
  ---------------------------------------------------
  free energy    TOTEN  =       -11.57376821 eV

  energy without entropy =      -11.57376821  energy(sigma->0) =      -11.57376821


--------------------------------------------------------------------------------------------------------




----------------------------------------- Iteration    1(  15)  ---------------------------------------


    POTLOK:  cpu time    0.9512: real time    0.9606
    SETDIJ:  cpu time    0.0064: real time    0.0064
     EDDAV:  cpu time    0.2367: real time    0.2376
       DOS:  cpu time    0.0032: real time    0.0033
    CHARGE:  cpu time    0.5151: real time    0.5167
    MIXING:  cpu time    0.0122: real time    0.0122
    --------------------------------------------
      LOOP:  cpu time    1.7284: real time    1.7436

 eigenvalue-minimisations  :    48
 total energy-change (2. order) :-0.1349466E-01  (-0.4452339E-04)
 number of electron       5.9999994 magnetization       2.0000000
 augmentation part        0.1080561 magnetization       0.0736382

 Broyden mixing:
  rms(total) = 0.12499E-02    rms(broyden)= 0.12493E-02
  rms(prec ) = 0.26214E-02
  weight for this iteration     100.00

 eigenvalues of (default mixing * dielectric matrix)
  average eigenvalue GAMMA=   1.4082
  3.8806  2.3787  1.7777  1.2483  0.9977  0.9977  0.8108  0.7176  0.6669  0.6064

 Free energy of the ion-electron system (eV)
  ---------------------------------------------------
  alpha Z        PSCENC =         0.03722024
  Ewald energy   TEWEN  =        64.90209267
  -Hartree energ DENC   =      -201.68807087
  -exchange      EXHF   =         0.00000000
  -V(xc)+E(xc)   XCENC  =        18.17600562
  PAW double counting   =       254.68118090     -255.34565899
  entropy T*S    EENTRO =        -0.00000000
  eigenvalues    EBANDS =       -64.43452163
  atomic energy  EATOM  =       172.08448920
  Solvation  Ediel_sol  =         0.00000000
  ---------------------------------------------------
  free energy    TOTEN  =       -11.58726288 eV

  energy without entropy =      -11.58726288  energy(sigma->0) =      -11.58726288


--------------------------------------------------------------------------------------------------------




----------------------------------------- Iteration    1(  16)  ---------------------------------------


    POTLOK:  cpu time    0.9678: real time    0.9731
    SETDIJ:  cpu time    0.0064: real time    0.0064
     EDDAV:  cpu time    0.2963: real time    0.2978
       DOS:  cpu time    0.0028: real time    0.0028
    CHARGE:  cpu time    0.5355: real time    0.5374
    MIXING:  cpu time    0.0126: real time    0.0126
    --------------------------------------------
      LOOP:  cpu time    1.8261: real time    1.8364

 eigenvalue-minimisations  :    64
 total energy-change (2. order) :-0.3145870E-03  (-0.8561057E-05)
 number of electron       5.9999994 magnetization       2.0000000
 augmentation part        0.1080501 magnetization       0.0736310

 Broyden mixing:
  rms(total) = 0.99661E-03    rms(broyden)= 0.99653E-03
  rms(prec ) = 0.19477E-02
  weight for this iteration     100.00

 eigenvalues of (default mixing * dielectric matrix)
  average eigenvalue GAMMA=   1.4882
  4.4361  2.4483  1.8056  1.8056  1.1481  0.9853  0.9853  0.8017  0.7009  0.6197
  0.6331

 Free energy of the ion-electron system (eV)
  ---------------------------------------------------
  alpha Z        PSCENC =         0.03722024
  Ewald energy   TEWEN  =        64.90209267
  -Hartree energ DENC   =      -201.73049234
  -exchange      EXHF   =         0.00000000
  -V(xc)+E(xc)   XCENC  =        18.17682387
  PAW double counting   =       254.64556866     -255.31008027
  entropy T*S    EENTRO =        -0.00000000
  eigenvalues    EBANDS =       -64.39319949
  atomic energy  EATOM  =       172.08448920
  Solvation  Ediel_sol  =         0.00000000
  ---------------------------------------------------
  free energy    TOTEN  =       -11.58757746 eV

  energy without entropy =      -11.58757746  energy(sigma->0) =      -11.58757746


--------------------------------------------------------------------------------------------------------




----------------------------------------- Iteration    1(  17)  ---------------------------------------


    POTLOK:  cpu time    0.9561: real time    0.9634
    SETDIJ:  cpu time    0.0061: real time    0.0062
     EDDAV:  cpu time    0.1789: real time    0.1796
       DOS:  cpu time    0.0033: real time    0.0033
    CHARGE:  cpu time    0.5038: real time    0.5057
    MIXING:  cpu time    0.0127: real time    0.0128
    --------------------------------------------
      LOOP:  cpu time    1.6645: real time    1.6772

 eigenvalue-minimisations  :    32
 total energy-change (2. order) :-0.1298404E-02  (-0.1533627E-04)
 number of electron       5.9999994 magnetization       2.0000000
 augmentation part        0.1080520 magnetization       0.0736363

 Broyden mixing:
  rms(total) = 0.57404E-03    rms(broyden)= 0.57402E-03
  rms(prec ) = 0.11053E-02
  weight for this iteration     100.00

 eigenvalues of (default mixing * dielectric matrix)
  average eigenvalue GAMMA=   1.5376
  4.9604  2.7680  2.1571  1.7236  1.2353  0.9798  0.9798  0.9042  0.8034  0.6865
  0.6180  0.6353

 Free energy of the ion-electron system (eV)
  ---------------------------------------------------
  alpha Z        PSCENC =         0.03722024
  Ewald energy   TEWEN  =        64.90209267
  -Hartree energ DENC   =      -201.75691527
  -exchange      EXHF   =         0.00000000
  -V(xc)+E(xc)   XCENC  =        18.17569853
  PAW double counting   =       254.84049795     -255.50472762
  entropy T*S    EENTRO =        -0.00000000
  eigenvalues    EBANDS =       -64.36723155
  atomic energy  EATOM  =       172.08448920
  Solvation  Ediel_sol  =         0.00000000
  ---------------------------------------------------
  free energy    TOTEN  =       -11.58887587 eV

  energy without entropy =      -11.58887587  energy(sigma->0) =      -11.58887587


--------------------------------------------------------------------------------------------------------




----------------------------------------- Iteration    1(  18)  ---------------------------------------


    POTLOK:  cpu time    0.9635: real time    0.9692
    SETDIJ:  cpu time    0.0061: real time    0.0061
     EDDAV:  cpu time    0.2916: real time    0.2949
       DOS:  cpu time    0.0030: real time    0.0030
    CHARGE:  cpu time    0.5738: real time    0.5759
    MIXING:  cpu time    0.0161: real time    0.0162
    --------------------------------------------
      LOOP:  cpu time    1.8591: real time    1.8718

 eigenvalue-minimisations  :    64
 total energy-change (2. order) :-0.1481737E-02  (-0.5841129E-05)
 number of electron       5.9999994 magnetization       2.0000000
 augmentation part        0.1080298 magnetization       0.0736209

 Broyden mixing:
  rms(total) = 0.45824E-03    rms(broyden)= 0.45814E-03
  rms(prec ) = 0.75466E-03
  weight for this iteration     100.00

 eigenvalues of (default mixing * dielectric matrix)
  average eigenvalue GAMMA=   1.5846
  5.5692  3.0679  2.1217  1.8816  1.2814  1.2814  0.9497  0.9497  0.7930  0.7930
  0.6138  0.6486  0.6486

 Free energy of the ion-electron system (eV)
  ---------------------------------------------------
  alpha Z        PSCENC =         0.03722024
  Ewald energy   TEWEN  =        64.90209267
  -Hartree energ DENC   =      -201.76636662
  -exchange      EXHF   =         0.00000000
  -V(xc)+E(xc)   XCENC  =        18.17425564
  PAW double counting   =       254.90116738     -255.56546622
  entropy T*S    EENTRO =        -0.00000000
  eigenvalues    EBANDS =       -64.35774989
  atomic energy  EATOM  =       172.08448920
  Solvation  Ediel_sol  =         0.00000000
  ---------------------------------------------------
  free energy    TOTEN  =       -11.59035760 eV

  energy without entropy =      -11.59035760  energy(sigma->0) =      -11.59035760


--------------------------------------------------------------------------------------------------------




----------------------------------------- Iteration    1(  19)  ---------------------------------------


    POTLOK:  cpu time    1.0821: real time    1.0955
    SETDIJ:  cpu time    0.0059: real time    0.0060
     EDDAV:  cpu time    0.1771: real time    0.1796
       DOS:  cpu time    0.0030: real time    0.0030
    CHARGE:  cpu time    0.5061: real time    0.5091
    MIXING:  cpu time    0.0142: real time    0.0143
    --------------------------------------------
      LOOP:  cpu time    1.7919: real time    1.8138

 eigenvalue-minimisations  :    32
 total energy-change (2. order) :-0.9821077E-03  (-0.2762019E-05)
 number of electron       5.9999994 magnetization       2.0000000
 augmentation part        0.1080271 magnetization       0.0736174

 Broyden mixing:
  rms(total) = 0.29279E-03    rms(broyden)= 0.29277E-03
  rms(prec ) = 0.45773E-03
  weight for this iteration     100.00

 eigenvalues of (default mixing * dielectric matrix)
  average eigenvalue GAMMA=   1.6702
  6.4644  3.3820  2.3692  1.9676  1.5601  1.2533  1.0146  1.0146  0.8634  0.8634
  0.7299  0.6573  0.6218  0.6218

 Free energy of the ion-electron system (eV)
  ---------------------------------------------------
  alpha Z        PSCENC =         0.03722024
  Ewald energy   TEWEN  =        64.90209267
  -Hartree energ DENC   =      -201.76340626
  -exchange      EXHF   =         0.00000000
  -V(xc)+E(xc)   XCENC  =        18.17231394
  PAW double counting   =       254.86573487     -255.53004921
  entropy T*S    EENTRO =        -0.00000000
  eigenvalues    EBANDS =       -64.35973516
  atomic energy  EATOM  =       172.08448920
  Solvation  Ediel_sol  =         0.00000000
  ---------------------------------------------------
  free energy    TOTEN  =       -11.59133971 eV

  energy without entropy =      -11.59133971  energy(sigma->0) =      -11.59133971


--------------------------------------------------------------------------------------------------------




----------------------------------------- Iteration    1(  20)  ---------------------------------------


    POTLOK:  cpu time    0.9666: real time    0.9719
    SETDIJ:  cpu time    0.0059: real time    0.0060
     EDDAV:  cpu time    0.1771: real time    0.1781
       DOS:  cpu time    0.0031: real time    0.0031
    CHARGE:  cpu time    0.6708: real time    0.6731
    MIXING:  cpu time    0.0304: real time    0.0304
    --------------------------------------------
      LOOP:  cpu time    1.8589: real time    1.8697

 eigenvalue-minimisations  :    32
 total energy-change (2. order) :-0.3517694E-03  (-0.8681988E-06)
 number of electron       5.9999994 magnetization       2.0000000
 augmentation part        0.1080292 magnetization       0.0736192

 Broyden mixing:
  rms(total) = 0.14483E-03    rms(broyden)= 0.14481E-03
  rms(prec ) = 0.26153E-03
  weight for this iteration     100.00

 eigenvalues of (default mixing * dielectric matrix)
  average eigenvalue GAMMA=   1.7716
  7.3178  4.0708  2.5067  2.2449  1.7324  1.1887  1.1887  1.0185  1.0185  0.8344
  0.8344  0.7178  0.6578  0.6212  0.6212

 Free energy of the ion-electron system (eV)
  ---------------------------------------------------
  alpha Z        PSCENC =         0.03722024
  Ewald energy   TEWEN  =        64.90209267
  -Hartree energ DENC   =      -201.76270280
  -exchange      EXHF   =         0.00000000
  -V(xc)+E(xc)   XCENC  =        18.17194149
  PAW double counting   =       254.85194023     -255.51622046
  entropy T*S    EENTRO =        -0.00000000
  eigenvalues    EBANDS =       -64.36045204
  atomic energy  EATOM  =       172.08448920
  Solvation  Ediel_sol  =         0.00000000
  ---------------------------------------------------
  free energy    TOTEN  =       -11.59169148 eV

  energy without entropy =      -11.59169148  energy(sigma->0) =      -11.59169148


--------------------------------------------------------------------------------------------------------




----------------------------------------- Iteration    1(  21)  ---------------------------------------


    POTLOK:  cpu time    0.9878: real time    1.0021
    SETDIJ:  cpu time    0.0061: real time    0.0061
     EDDAV:  cpu time    0.2703: real time    0.2718
       DOS:  cpu time    0.0028: real time    0.0028
    CHARGE:  cpu time    0.5040: real time    0.5056
    MIXING:  cpu time    0.0155: real time    0.0155
    --------------------------------------------
      LOOP:  cpu time    1.8091: real time    1.8349

 eigenvalue-minimisations  :    56
 total energy-change (2. order) :-0.1038999E-03  (-0.5414262E-06)
 number of electron       5.9999994 magnetization       2.0000000
 augmentation part        0.1080300 magnetization       0.0736199

 Broyden mixing:
  rms(total) = 0.86211E-04    rms(broyden)= 0.86185E-04
  rms(prec ) = 0.14887E-03
  weight for this iteration     100.00

 eigenvalues of (default mixing * dielectric matrix)
  average eigenvalue GAMMA=   1.8327
  8.1238  4.6750  2.6706  2.3668  1.7263  1.4383  1.1634  0.9924  0.9924  0.9067
  0.9067  0.7622  0.7062  0.6133  0.6463  0.6328

 Free energy of the ion-electron system (eV)
  ---------------------------------------------------
  alpha Z        PSCENC =         0.03722024
  Ewald energy   TEWEN  =        64.90209267
  -Hartree energ DENC   =      -201.76099211
  -exchange      EXHF   =         0.00000000
  -V(xc)+E(xc)   XCENC  =        18.17172866
  PAW double counting   =       254.81935139     -255.48365980
  entropy T*S    EENTRO =        -0.00000000
  eigenvalues    EBANDS =       -64.36202562
  atomic energy  EATOM  =       172.08448920
  Solvation  Ediel_sol  =         0.00000000
  ---------------------------------------------------
  free energy    TOTEN  =       -11.59179538 eV

  energy without entropy =      -11.59179538  energy(sigma->0) =      -11.59179538


--------------------------------------------------------------------------------------------------------




----------------------------------------- Iteration    1(  22)  ---------------------------------------


    POTLOK:  cpu time    0.9490: real time    0.9587
    SETDIJ:  cpu time    0.0064: real time    0.0063
     EDDAV:  cpu time    0.2387: real time    0.2403
       DOS:  cpu time    0.0030: real time    0.0030
    CHARGE:  cpu time    0.4946: real time    0.4967
    MIXING:  cpu time    0.0155: real time    0.0156
    --------------------------------------------
      LOOP:  cpu time    1.7112: real time    1.7275

 eigenvalue-minimisations  :    48
 total energy-change (2. order) :-0.1867720E-04  (-0.6231936E-07)
 number of electron       5.9999994 magnetization       2.0000000
 augmentation part        0.1080286 magnetization       0.0736190

 Broyden mixing:
  rms(total) = 0.56485E-04    rms(broyden)= 0.56477E-04
  rms(prec ) = 0.10097E-03
  weight for this iteration     100.00

 eigenvalues of (default mixing * dielectric matrix)
  average eigenvalue GAMMA=   1.8446
  8.4936  4.8765  2.8166  2.3919  1.7698  1.6434  1.2162  1.0481  1.0481  0.9369
  0.9369  0.8555  0.7494  0.6865  0.6486  0.6124  0.6277

 Free energy of the ion-electron system (eV)
  ---------------------------------------------------
  alpha Z        PSCENC =         0.03722024
  Ewald energy   TEWEN  =        64.90209267
  -Hartree energ DENC   =      -201.76042823
  -exchange      EXHF   =         0.00000000
  -V(xc)+E(xc)   XCENC  =        18.17162977
  PAW double counting   =       254.81115408     -255.47545676
  entropy T*S    EENTRO =        -0.00000000
  eigenvalues    EBANDS =       -64.36251503
  atomic energy  EATOM  =       172.08448920
  Solvation  Ediel_sol  =         0.00000000
  ---------------------------------------------------
  free energy    TOTEN  =       -11.59181406 eV

  energy without entropy =      -11.59181406  energy(sigma->0) =      -11.59181406


--------------------------------------------------------------------------------------------------------




----------------------------------------- Iteration    1(  23)  ---------------------------------------


    POTLOK:  cpu time    0.9599: real time    0.9666
    SETDIJ:  cpu time    0.0064: real time    0.0065
     EDDAV:  cpu time    0.2647: real time    0.2657
       DOS:  cpu time    0.0023: real time    0.0024
    CHARGE:  cpu time    0.5423: real time    0.5530
    MIXING:  cpu time    0.0160: real time    0.0162
    --------------------------------------------
      LOOP:  cpu time    1.7948: real time    1.8164

 eigenvalue-minimisations  :    48
 total energy-change (2. order) :-0.4548285E-04  (-0.5468805E-07)
 number of electron       5.9999994 magnetization       2.0000000
 augmentation part        0.1080281 magnetization       0.0736179

 Broyden mixing:
  rms(total) = 0.33504E-04    rms(broyden)= 0.33502E-04
  rms(prec ) = 0.56085E-04
  weight for this iteration     100.00

 eigenvalues of (default mixing * dielectric matrix)
  average eigenvalue GAMMA=   1.8951
  8.9026  5.0562  3.2356  2.4730  2.2645  1.7328  1.2526  1.2526  1.0213  1.0213
  0.9033  0.9033  0.7955  0.7289  0.6790  0.6130  0.6488  0.6271

 Free energy of the ion-electron system (eV)
  ---------------------------------------------------
  alpha Z        PSCENC =         0.03722024
  Ewald energy   TEWEN  =        64.90209267
  -Hartree energ DENC   =      -201.76089670
  -exchange      EXHF   =         0.00000000
  -V(xc)+E(xc)   XCENC  =        18.17160164
  PAW double counting   =       254.80881402     -255.47313331
  entropy T*S    EENTRO =        -0.00000000
  eigenvalues    EBANDS =       -64.36204730
  atomic energy  EATOM  =       172.08448920
  Solvation  Ediel_sol  =         0.00000000
  ---------------------------------------------------
  free energy    TOTEN  =       -11.59185954 eV

  energy without entropy =      -11.59185954  energy(sigma->0) =      -11.59185954


--------------------------------------------------------------------------------------------------------




----------------------------------------- Iteration    1(  24)  ---------------------------------------


    POTLOK:  cpu time    0.9360: real time    0.9472
    SETDIJ:  cpu time    0.0059: real time    0.0060
     EDDAV:  cpu time    0.3033: real time    0.3057
       DOS:  cpu time    0.0036: real time    0.0036
    CHARGE:  cpu time    0.4994: real time    0.5010
    MIXING:  cpu time    0.0175: real time    0.0175
    --------------------------------------------
      LOOP:  cpu time    1.7697: real time    1.7879

 eigenvalue-minimisations  :    56
 total energy-change (2. order) :-0.2847677E-04  (-0.2230570E-07)
 number of electron       5.9999994 magnetization       2.0000000
 augmentation part        0.1080280 magnetization       0.0736177

 Broyden mixing:
  rms(total) = 0.21289E-04    rms(broyden)= 0.21287E-04
  rms(prec ) = 0.34240E-04
  weight for this iteration     100.00

 eigenvalues of (default mixing * dielectric matrix)
  average eigenvalue GAMMA=   1.9250
  9.1445  5.2409  3.7599  2.6261  2.3957  1.6979  1.5027  1.2210  1.0951  1.0951
  0.9534  0.9534  0.8424  0.7796  0.6919  0.6919  0.6122  0.6353  0.6356

 Free energy of the ion-electron system (eV)
  ---------------------------------------------------
  alpha Z        PSCENC =         0.03722024
  Ewald energy   TEWEN  =        64.90209267
  -Hartree energ DENC   =      -201.76114750
  -exchange      EXHF   =         0.00000000
  -V(xc)+E(xc)   XCENC  =        18.17158402
  PAW double counting   =       254.81290215     -255.47721837
  entropy T*S    EENTRO =        -0.00000000
  eigenvalues    EBANDS =       -64.36181042
  atomic energy  EATOM  =       172.08448920
  Solvation  Ediel_sol  =         0.00000000
  ---------------------------------------------------
  free energy    TOTEN  =       -11.59188802 eV

  energy without entropy =      -11.59188802  energy(sigma->0) =      -11.59188802


--------------------------------------------------------------------------------------------------------




----------------------------------------- Iteration    1(  25)  ---------------------------------------


    POTLOK:  cpu time    0.9435: real time    0.9520
    SETDIJ:  cpu time    0.0060: real time    0.0061
     EDDAV:  cpu time    0.2955: real time    0.2969
       DOS:  cpu time    0.0030: real time    0.0031
    CHARGE:  cpu time    0.5203: real time    0.5218
    MIXING:  cpu time    0.0184: real time    0.0185
    --------------------------------------------
      LOOP:  cpu time    1.7902: real time    1.8049

 eigenvalue-minimisations  :    64
 total energy-change (2. order) :-0.1004707E-04  (-0.6707067E-08)
 number of electron       5.9999994 magnetization       2.0000000
 augmentation part        0.1080283 magnetization       0.0736179

 Broyden mixing:
  rms(total) = 0.11821E-04    rms(broyden)= 0.11820E-04
  rms(prec ) = 0.19810E-04
  weight for this iteration     100.00

 eigenvalues of (default mixing * dielectric matrix)
  average eigenvalue GAMMA=   1.9626
  9.3966  5.6030  4.2656  2.6067  2.5200  1.8243  1.8243  1.2477  1.2477  1.0304
  1.0304  0.9125  0.9125  0.8249  0.7605  0.6963  0.6699  0.6109  0.6335  0.6335

 Free energy of the ion-electron system (eV)
  ---------------------------------------------------
  alpha Z        PSCENC =         0.03722024
  Ewald energy   TEWEN  =        64.90209267
  -Hartree energ DENC   =      -201.76105050
  -exchange      EXHF   =         0.00000000
  -V(xc)+E(xc)   XCENC  =        18.17157471
  PAW double counting   =       254.81642620     -255.48073903
  entropy T*S    EENTRO =        -0.00000000
  eigenvalues    EBANDS =       -64.36191156
  atomic energy  EATOM  =       172.08448920
  Solvation  Ediel_sol  =         0.00000000
  ---------------------------------------------------
  free energy    TOTEN  =       -11.59189807 eV

  energy without entropy =      -11.59189807  energy(sigma->0) =      -11.59189807


--------------------------------------------------------------------------------------------------------




----------------------------------------- Iteration    1(  26)  ---------------------------------------


    POTLOK:  cpu time    0.9647: real time    0.9687
    SETDIJ:  cpu time    0.0063: real time    0.0063
     EDDAV:  cpu time    0.2940: real time    0.2952
       DOS:  cpu time    0.0032: real time    0.0032
    CHARGE:  cpu time    0.5413: real time    0.5433
    MIXING:  cpu time    0.0187: real time    0.0187
    --------------------------------------------
      LOOP:  cpu time    1.8325: real time    1.8419

 eigenvalue-minimisations  :    64
 total energy-change (2. order) :-0.2533200E-05  (-0.1486461E-08)
 number of electron       5.9999994 magnetization       2.0000000
 augmentation part        0.1080284 magnetization       0.0736180

 Broyden mixing:
  rms(total) = 0.80812E-05    rms(broyden)= 0.80806E-05
  rms(prec ) = 0.13241E-04
  weight for this iteration     100.00

 eigenvalues of (default mixing * dielectric matrix)
  average eigenvalue GAMMA=   1.9561
  9.5285  5.9181  4.4728  2.7058  2.4041  2.2119  1.7356  1.2319  1.2319  1.0861
  1.0861  0.9427  0.9427  0.8096  0.8096  0.7329  0.7032  0.6110  0.6431  0.6431
  0.6267

 Free energy of the ion-electron system (eV)
  ---------------------------------------------------
  alpha Z        PSCENC =         0.03722024
  Ewald energy   TEWEN  =        64.90209267
  -Hartree energ DENC   =      -201.76095372
  -exchange      EXHF   =         0.00000000
  -V(xc)+E(xc)   XCENC  =        18.17157088
  PAW double counting   =       254.81530339     -255.47961241
  entropy T*S    EENTRO =        -0.00000000
  eigenvalues    EBANDS =       -64.36201084
  atomic energy  EATOM  =       172.08448920
  Solvation  Ediel_sol  =         0.00000000
  ---------------------------------------------------
  free energy    TOTEN  =       -11.59190060 eV

  energy without entropy =      -11.59190060  energy(sigma->0) =      -11.59190060


--------------------------------------------------------------------------------------------------------




----------------------------------------- Iteration    1(  27)  ---------------------------------------


    POTLOK:  cpu time    0.9496: real time    0.9582
    SETDIJ:  cpu time    0.0063: real time    0.0064
     EDDAV:  cpu time    0.2955: real time    0.2966
       DOS:  cpu time    0.0028: real time    0.0028
    CHARGE:  cpu time    0.5152: real time    0.5173
    MIXING:  cpu time    0.0190: real time    0.0190
    --------------------------------------------
      LOOP:  cpu time    1.7928: real time    1.8068

 eigenvalue-minimisations  :    64
 total energy-change (2. order) :-0.1140102E-05  (-0.4436513E-09)
 number of electron       5.9999994 magnetization       2.0000000
 augmentation part        0.1080283 magnetization       0.0736179

 Broyden mixing:
  rms(total) = 0.44529E-05    rms(broyden)= 0.44521E-05
  rms(prec ) = 0.80989E-05
  weight for this iteration     100.00

 eigenvalues of (default mixing * dielectric matrix)
  average eigenvalue GAMMA=   2.0010
  9.5835  6.3029  4.6816  3.0968  2.4538  2.4538  1.7276  1.7276  1.2803  1.1860
  1.0401  1.0401  0.9627  0.8892  0.8892  0.7625  0.7405  0.6851  0.6118  0.6414
  0.6414  0.6249

 Free energy of the ion-electron system (eV)
  ---------------------------------------------------
  alpha Z        PSCENC =         0.03722024
  Ewald energy   TEWEN  =        64.90209267
  -Hartree energ DENC   =      -201.76093359
  -exchange      EXHF   =         0.00000000
  -V(xc)+E(xc)   XCENC  =        18.17156667
  PAW double counting   =       254.81399060     -255.47830126
  entropy T*S    EENTRO =        -0.00000000
  eigenvalues    EBANDS =       -64.36202627
  atomic energy  EATOM  =       172.08448920
  Solvation  Ediel_sol  =         0.00000000
  ---------------------------------------------------
  free energy    TOTEN  =       -11.59190174 eV

  energy without entropy =      -11.59190174  energy(sigma->0) =      -11.59190174


--------------------------------------------------------------------------------------------------------




----------------------------------------- Iteration    1(  28)  ---------------------------------------


    POTLOK:  cpu time    0.9420: real time    0.9536
    SETDIJ:  cpu time    0.0060: real time    0.0061
     EDDAV:  cpu time    0.2019: real time    0.2043
       DOS:  cpu time    0.0027: real time    0.0027
    CHARGE:  cpu time    0.5026: real time    0.5130
    MIXING:  cpu time    0.0197: real time    0.0200
    --------------------------------------------
      LOOP:  cpu time    1.6789: real time    1.7064

 eigenvalue-minimisations  :    40
 total energy-change (2. order) :-0.5966671E-06  (-0.6540715E-09)
 number of electron       5.9999994 magnetization       2.0000000
 augmentation part        0.1080283 magnetization       0.0736179

 Broyden mixing:
  rms(total) = 0.27141E-05    rms(broyden)= 0.27127E-05
  rms(prec ) = 0.41838E-05
  weight for this iteration     100.00

 eigenvalues of (default mixing * dielectric matrix)
  average eigenvalue GAMMA=   1.9966
  9.6260  6.5808  4.8294  3.4531  2.4646  2.4324  1.9279  1.7501  1.2334  1.2334
  1.0779  1.0779  0.9477  0.9477  0.8384  0.8384  0.7359  0.7359  0.6791  0.6120
  0.6402  0.6351  0.6246

 Free energy of the ion-electron system (eV)
  ---------------------------------------------------
  alpha Z        PSCENC =         0.03722024
  Ewald energy   TEWEN  =        64.90209267
  -Hartree energ DENC   =      -201.76089802
  -exchange      EXHF   =         0.00000000
  -V(xc)+E(xc)   XCENC  =        18.17156603
  PAW double counting   =       254.81450849     -255.47881949
  entropy T*S    EENTRO =        -0.00000000
  eigenvalues    EBANDS =       -64.36206144
  atomic energy  EATOM  =       172.08448920
  Solvation  Ediel_sol  =         0.00000000
  ---------------------------------------------------
  free energy    TOTEN  =       -11.59190234 eV

  energy without entropy =      -11.59190234  energy(sigma->0) =      -11.59190234


--------------------------------------------------------------------------------------------------------




----------------------------------------- Iteration    1(  29)  ---------------------------------------


    POTLOK:  cpu time    0.5060: real time    0.9796
    SETDIJ:  cpu time    0.0052: real time    0.0060
     EDDAV:  cpu time    0.1831: real time    0.3051
       DOS:  cpu time    0.0004: real time    0.0004
    CHARGE:  cpu time    0.5108: real time    0.5994
    MIXING:  cpu time    0.0159: real time    0.0198
    --------------------------------------------
      LOOP:  cpu time    1.2264: real time    1.9274

 eigenvalue-minimisations  :    64
 total energy-change (2. order) :-0.6617529E-06  (-0.7434053E-10)
 number of electron       5.9999994 magnetization       2.0000000
 augmentation part        0.1080284 magnetization       0.0736180

 Broyden mixing:
  rms(total) = 0.16243E-05    rms(broyden)= 0.16237E-05
  rms(prec ) = 0.26718E-05
  weight for this iteration     100.00

 eigenvalues of (default mixing * dielectric matrix)
  average eigenvalue GAMMA=   2.0205
  9.6561  6.8971  4.9619  3.8464  2.6455  2.3492  2.2019  1.6660  1.4421  1.2796
  1.2796  1.0451  1.0451  0.9330  0.9330  0.8787  0.8101  0.7209  0.7209  0.6762
  0.6417  0.6118  0.6254  0.6254

 Free energy of the ion-electron system (eV)
  ---------------------------------------------------
  alpha Z        PSCENC =         0.03722024
  Ewald energy   TEWEN  =        64.90209267
  -Hartree energ DENC   =      -201.76085683
  -exchange      EXHF   =         0.00000000
  -V(xc)+E(xc)   XCENC  =        18.17156370
  PAW double counting   =       254.81474657     -255.47905767
  entropy T*S    EENTRO =        -0.00000000
  eigenvalues    EBANDS =       -64.36210087
  atomic energy  EATOM  =       172.08448920
  Solvation  Ediel_sol  =         0.00000000
  ---------------------------------------------------
  free energy    TOTEN  =       -11.59190300 eV

  energy without entropy =      -11.59190300  energy(sigma->0) =      -11.59190300


--------------------------------------------------------------------------------------------------------




----------------------------------------- Iteration    1(  30)  ---------------------------------------


    POTLOK:  cpu time    0.8889: real time    0.9680
    SETDIJ:  cpu time    0.0060: real time    0.0061
     EDDAV:  cpu time    0.2316: real time    0.2326
       DOS:  cpu time    0.0030: real time    0.0031
    CHARGE:  cpu time    0.5116: real time    0.5134
    MIXING:  cpu time    0.0198: real time    0.0198
    --------------------------------------------
      LOOP:  cpu time    1.6661: real time    1.7503

 eigenvalue-minimisations  :    48
 total energy-change (2. order) :-0.6639300E-06  (-0.9369661E-10)
 number of electron       5.9999994 magnetization       2.0000000
 augmentation part        0.1080284 magnetization       0.0736180

 Broyden mixing:
  rms(total) = 0.87363E-06    rms(broyden)= 0.87231E-06
  rms(prec ) = 0.15134E-05
  weight for this iteration     100.00

 eigenvalues of (default mixing * dielectric matrix)
  average eigenvalue GAMMA=   2.0433
  9.6723  7.2364  5.1357  4.2097  2.8422  2.4613  2.2352  1.7611  1.7611  1.2054
  1.2054  1.1032  1.1032  0.9875  0.9875  0.8836  0.8836  0.7864  0.7300  0.7084
  0.6784  0.6116  0.6398  0.6273  0.6273

 Free energy of the ion-electron system (eV)
  ---------------------------------------------------
  alpha Z        PSCENC =         0.03722024
  Ewald energy   TEWEN  =        64.90209267
  -Hartree energ DENC   =      -201.76083965
  -exchange      EXHF   =         0.00000000
  -V(xc)+E(xc)   XCENC  =        18.17156338
  PAW double counting   =       254.81455336     -255.47886464
  entropy T*S    EENTRO =        -0.00000000
  eigenvalues    EBANDS =       -64.36211821
  atomic energy  EATOM  =       172.08448920
  Solvation  Ediel_sol  =         0.00000000
  ---------------------------------------------------
  free energy    TOTEN  =       -11.59190366 eV

  energy without entropy =      -11.59190366  energy(sigma->0) =      -11.59190366


--------------------------------------------------------------------------------------------------------




----------------------------------------- Iteration    1(  31)  ---------------------------------------


    POTLOK:  cpu time    0.9569: real time    0.9600
    SETDIJ:  cpu time    0.0063: real time    0.0063
[...]
  ---------------------------------------------------
  alpha Z        PSCENC =         0.03722024
  Ewald energy   TEWEN  =        67.38071093
  -Hartree energ DENC   =      -203.69558987
  -exchange      EXHF   =         0.00000000
  -V(xc)+E(xc)   XCENC  =        18.31203523
  PAW double counting   =       279.27265984     -279.95340897
  entropy T*S    EENTRO =        -0.00000000
  eigenvalues    EBANDS =       -65.53688568
  atomic energy  EATOM  =       172.08448920
  Solvation  Ediel_sol  =         0.00000000
  ---------------------------------------------------
  free energy    TOTEN  =       -12.09876909 eV

  energy without entropy =      -12.09876909  energy(sigma->0) =      -12.09876909


--------------------------------------------------------------------------------------------------------




----------------------------------------- Iteration    9(  12)  ---------------------------------------


    POTLOK:  cpu time    0.9558: real time    0.9592
    SETDIJ:  cpu time    0.0064: real time    0.0064
     EDDAV:  cpu time    0.3066: real time    0.3081
       DOS:  cpu time    0.0032: real time    0.0032
    CHARGE:  cpu time    0.5838: real time    0.5859
    MIXING:  cpu time    0.0133: real time    0.0134
    --------------------------------------------
      LOOP:  cpu time    1.8728: real time    1.8882

 eigenvalue-minimisations  :    64
 total energy-change (2. order) :-0.4822448E-07  (-0.1933476E-10)
 number of electron       6.0000008 magnetization       2.0000000
 augmentation part        0.1120520 magnetization       0.0830503

 Broyden mixing:
  rms(total) = 0.44698E-06    rms(broyden)= 0.44688E-06
  rms(prec ) = 0.98458E-06
  weight for this iteration     100.00

 eigenvalues of (default mixing * dielectric matrix)
  average eigenvalue GAMMA=   1.4945
  4.5406  2.6279  2.0939  1.2759  1.1446  1.1446  0.9278  0.7594  0.6807  0.6219
  0.6219

 Free energy of the ion-electron system (eV)
  ---------------------------------------------------
  alpha Z        PSCENC =         0.03722024
  Ewald energy   TEWEN  =        67.38071093
  -Hartree energ DENC   =      -203.69558544
  -exchange      EXHF   =         0.00000000
  -V(xc)+E(xc)   XCENC  =        18.31203507
  PAW double counting   =       279.27272941     -279.95347856
  entropy T*S    EENTRO =        -0.00000000
  eigenvalues    EBANDS =       -65.53688999
  atomic energy  EATOM  =       172.08448920
  Solvation  Ediel_sol  =         0.00000000
  ---------------------------------------------------
  free energy    TOTEN  =       -12.09876914 eV

  energy without entropy =      -12.09876914  energy(sigma->0) =      -12.09876914


--------------------------------------------------------------------------------------------------------




----------------------------------------- Iteration    9(  13)  ---------------------------------------


    POTLOK:  cpu time    0.9492: real time    0.9526
    SETDIJ:  cpu time    0.0062: real time    0.0062
     EDDAV:  cpu time    0.1775: real time    0.1785
       DOS:  cpu time    0.0030: real time    0.0030
    CHARGE:  cpu time    0.5455: real time    0.5471
    MIXING:  cpu time    0.0140: real time    0.0140
    --------------------------------------------
      LOOP:  cpu time    1.6999: real time    1.7134

 eigenvalue-minimisations  :    32
 total energy-change (2. order) :-0.6131921E-07  (-0.1970690E-10)
 number of electron       6.0000008 magnetization       2.0000000
 augmentation part        0.1120520 magnetization       0.0830503

 Broyden mixing:
  rms(total) = 0.30173E-06    rms(broyden)= 0.30150E-06
  rms(prec ) = 0.60190E-06
  weight for this iteration     100.00

 eigenvalues of (default mixing * dielectric matrix)
  average eigenvalue GAMMA=   1.5787
  5.2282  2.7964  2.2600  1.8510  1.1382  1.1382  1.0038  0.8884  0.7347  0.6660
  0.6146  0.6255

 Free energy of the ion-electron system (eV)
  ---------------------------------------------------
  alpha Z        PSCENC =         0.03722024
  Ewald energy   TEWEN  =        67.38071093
  -Hartree energ DENC   =      -203.69558252
  -exchange      EXHF   =         0.00000000
  -V(xc)+E(xc)   XCENC  =        18.31203498
  PAW double counting   =       279.27276273     -279.95351187
  entropy T*S    EENTRO =        -0.00000000
  eigenvalues    EBANDS =       -65.53689289
  atomic energy  EATOM  =       172.08448920
  Solvation  Ediel_sol  =         0.00000000
  ---------------------------------------------------
  free energy    TOTEN  =       -12.09876920 eV

  energy without entropy =      -12.09876920  energy(sigma->0) =      -12.09876920


--------------------------------------------------------------------------------------------------------




----------------------------------------- Iteration    9(  14)  ---------------------------------------


    POTLOK:  cpu time    1.0063: real time    1.0092
    SETDIJ:  cpu time    0.0064: real time    0.0064
     EDDAV:  cpu time    0.2388: real time    0.2399
       DOS:  cpu time    0.0027: real time    0.0027
    CHARGE:  cpu time    0.5076: real time    0.5092
    MIXING:  cpu time    0.0146: real time    0.0147
    --------------------------------------------
      LOOP:  cpu time    1.7813: real time    1.7938

 eigenvalue-minimisations  :    48
 total energy-change (2. order) :-0.4214382E-07  (-0.7939427E-11)
 number of electron       6.0000008 magnetization       2.0000000
 augmentation part        0.1120520 magnetization       0.0830503

 Broyden mixing:
  rms(total) = 0.17617E-06    rms(broyden)= 0.17608E-06
  rms(prec ) = 0.36085E-06
  weight for this iteration     100.00

 eigenvalues of (default mixing * dielectric matrix)
  average eigenvalue GAMMA=   1.6785
  6.2708  3.2072  2.5137  1.9587  1.1986  1.1986  1.0239  1.0239  0.7962  0.7223
  0.6678  0.6128  0.6259

 Free energy of the ion-electron system (eV)
  ---------------------------------------------------
  alpha Z        PSCENC =         0.03722024
  Ewald energy   TEWEN  =        67.38071093
  -Hartree energ DENC   =      -203.69558103
  -exchange      EXHF   =         0.00000000
  -V(xc)+E(xc)   XCENC  =        18.31203494
  PAW double counting   =       279.27272435     -279.95347350
  entropy T*S    EENTRO =        -0.00000000
  eigenvalues    EBANDS =       -65.53689436
  atomic energy  EATOM  =       172.08448920
  Solvation  Ediel_sol  =         0.00000000
  ---------------------------------------------------
  free energy    TOTEN  =       -12.09876924 eV

  energy without entropy =      -12.09876924  energy(sigma->0) =      -12.09876924


--------------------------------------------------------------------------------------------------------




----------------------------------------- Iteration    9(  15)  ---------------------------------------


    POTLOK:  cpu time    0.9478: real time    0.9509
    SETDIJ:  cpu time    0.0063: real time    0.0063
     EDDAV:  cpu time    0.2358: real time    0.2383
       DOS:  cpu time    0.0037: real time    0.0038
    CHARGE:  cpu time    0.5295: real time    0.5312
    MIXING:  cpu time    0.0148: real time    0.0149
    --------------------------------------------
      LOOP:  cpu time    1.7426: real time    1.7564

 eigenvalue-minimisations  :    48
 total energy-change (2. order) :-0.1994403E-07  (-0.1717737E-11)
 number of electron       6.0000008 magnetization       2.0000000
 augmentation part        0.1120520 magnetization       0.0830503

 Broyden mixing:
  rms(total) = 0.12486E-06    rms(broyden)= 0.12484E-06
  rms(prec ) = 0.24296E-06
  weight for this iteration     100.00

 eigenvalues of (default mixing * dielectric matrix)
  average eigenvalue GAMMA=   1.7543
  6.8435  3.6295  2.5599  2.0336  1.7653  1.1592  1.1592  1.0113  1.0113  0.7707
  0.7126  0.6658  0.6116  0.6267

 Free energy of the ion-electron system (eV)
  ---------------------------------------------------
  alpha Z        PSCENC =         0.03722024
  Ewald energy   TEWEN  =        67.38071093
  -Hartree energ DENC   =      -203.69558126
  -exchange      EXHF   =         0.00000000
  -V(xc)+E(xc)   XCENC  =        18.31203499
  PAW double counting   =       279.27270995     -279.95345913
  entropy T*S    EENTRO =        -0.00000000
  eigenvalues    EBANDS =       -65.53689418
  atomic energy  EATOM  =       172.08448920
  Solvation  Ediel_sol  =         0.00000000
  ---------------------------------------------------
  free energy    TOTEN  =       -12.09876926 eV

  energy without entropy =      -12.09876926  energy(sigma->0) =      -12.09876926


--------------------------------------------------------------------------------------------------------




----------------------------------------- Iteration    9(  16)  ---------------------------------------


    POTLOK:  cpu time    0.9474: real time    0.9501
    SETDIJ:  cpu time    0.0063: real time    0.0063
     EDDAV:  cpu time    0.2670: real time    0.2680
       DOS:  cpu time    0.0028: real time    0.0028
    --------------------------------------------
      LOOP:  cpu time    1.2283: real time    1.2395

 eigenvalue-minimisations  :    56
 total energy-change (2. order) :-0.7391805E-08  (-0.1313616E-11)
 number of electron       6.0000008 magnetization       2.0000000
 augmentation part        0.1120520 magnetization       0.0830503

 Free energy of the ion-electron system (eV)
  ---------------------------------------------------
  alpha Z        PSCENC =         0.03722024
  Ewald energy   TEWEN  =        67.38071093
  -Hartree energ DENC   =      -203.69558077
  -exchange      EXHF   =         0.00000000
  -V(xc)+E(xc)   XCENC  =        18.31203502
  PAW double counting   =       279.27271898     -279.95346814
  entropy T*S    EENTRO =        -0.00000000
  eigenvalues    EBANDS =       -65.53689472
  atomic energy  EATOM  =       172.08448920
  Solvation  Ediel_sol  =         0.00000000
  ---------------------------------------------------
  free energy    TOTEN  =       -12.09876927 eV

  energy without entropy =      -12.09876927  energy(sigma->0) =      -12.09876927


--------------------------------------------------------------------------------------------------------




 average (electrostatic) potential at core
  the test charge radii are     0.5201  0.6991
  (the norm of the test charge is              1.0000)
       1 -42.7688       2 -42.7688       3 -59.1076
 
 
 
 E-fermi :  -5.6375     XC(G=0):  -0.1737     alpha+bet : -0.0380


 spin component 1

 k-point     1 :       0.0000    0.0000    0.0000
  band No.  band energies     occupation 
      1     -16.6736      1.00000
      2     -11.1081      1.00000
      3      -6.5835      1.00000
      4      -5.7163      1.00000
      5      -0.5052      0.00000
      6       0.1584      0.00000
      7       0.3221      0.00000
      8       0.4010      0.00000

 spin component 2

 k-point     1 :       0.0000    0.0000    0.0000
  band No.  band energies     occupation 
      1     -14.8414      1.00000
      2     -10.6140      1.00000
      3      -3.0390      0.00000
      4      -2.4465      0.00000
      5      -0.1446      0.00000
      6       0.2948      0.00000
      7       0.4592      0.00000
      8       0.5635      0.00000


--------------------------------------------------------------------------------------------------------


 soft charge-density along one line, spin component           1
         0         1         2         3         4         5         6         7         8         9
 total charge-density along one line
 
 soft charge-density along one line, spin component           2
         0         1         2         3         4         5         6         7         8         9
 total charge-density along one line
 
 pseudopotential strength for first ion, spin component:           1
 -2.358  -4.065  -0.002   0.000   0.000
 -4.065  -6.925  -0.006   0.000   0.002
 -0.002  -0.006  -0.330  -0.000  -0.002
  0.000   0.000  -0.000  -0.335   0.000
  0.000   0.002  -0.002   0.000  -0.334
 pseudopotential strength for first ion, spin component:           2
 -2.360  -4.071  -0.002   0.000   0.001
 -4.071  -6.935  -0.005   0.000   0.003
 -0.002  -0.005  -0.330  -0.000  -0.002
  0.000   0.000  -0.000  -0.334   0.000
  0.001   0.003  -0.002   0.000  -0.334
 total augmentation occupancy for first ion, spin component:           1
  3.512  -0.641   0.422   0.000  -0.173
 -0.641   0.127  -0.078   0.000   0.034
  0.422  -0.078   0.052   0.000  -0.018
  0.000   0.000   0.000   0.013   0.000
 -0.173   0.034  -0.018   0.000   0.017
 total augmentation occupancy for first ion, spin component:           2
  0.038  -0.029   0.015   0.000   0.025
 -0.029   0.013  -0.004   0.000   0.001
  0.015  -0.004   0.004   0.000   0.004
  0.000   0.000   0.000   0.013   0.000
  0.025   0.001   0.004   0.000   0.005


------------------------ aborting loop because EDIFF is reached ----------------------------------------


 


 total charge     
 
# of ion     s       p       d       tot
----------------------------------------
  1        0.626   0.048   0.000   0.674
  2        0.626   0.048   0.000   0.674
  3        0.858   1.505   0.000   2.363
------------------------------------------------
tot        2.109   1.602   0.000   3.711
 


 magnetization (x)
 
# of ion     s       p       d       tot
----------------------------------------
  1       -0.008   0.013   0.000   0.005
  2       -0.008   0.013   0.000   0.005
  3        0.097   0.848   0.000   0.945
------------------------------------------------
tot        0.082   0.874   0.000   0.956
 
    CHARGE:  cpu time    0.5490: real time    0.5505
    FORLOC:  cpu time    0.0016: real time    0.0016
    FORNL :  cpu time    0.0088: real time    0.0088
    STRESS:  cpu time    0.0255: real time    0.0257
    FORCOR:  cpu time    0.8587: real time    0.8611
    FORHAR:  cpu time    0.1129: real time    0.1133
    MIXING:  cpu time    0.0155: real time    0.0156
    OFIELD:  cpu time    0.0001: real time    0.0001

  FORCE on cell =-STRESS in cart. coord.  units (eV):
  Direction    XX          YY          ZZ          XY          YZ          ZX
  --------------------------------------------------------------------------------------
  Alpha Z     0.03722     0.03722     0.03722
  Ewald       0.13028    82.62139   -15.37096    -0.00000     0.00000     0.00000
  Hartree    60.78795    85.10771    57.79991     0.00000    -0.00000    -0.00000
  E(xc)     -20.60750   -20.29480   -20.64155     0.00000    -0.00000     0.00000
  Local    -113.57918  -210.29488   -98.99204     0.00000    -0.00000    -0.00000
  n-local    -7.40533    -8.09773    -7.90024     0.00000     0.00000    -0.00000
  augment    -0.02858     0.05218    -0.03056     0.00000     0.00000     0.00000
  Kinetic    80.36765    70.59101    84.78514    -0.00000    -0.00000     0.00000
  Fock        0.00000     0.00000     0.00000     0.00000     0.00000     0.00000
  -------------------------------------------------------------------------------------
  Total      -0.29749    -0.27790    -0.31307    -0.00000     0.00000     0.00000
  in kB      -0.11636    -0.10870    -0.12246    -0.00000     0.00000     0.00000
  external pressure =       -0.12 kB  Pullay stress =        0.00 kB


 VOLUME and BASIS-vectors are now :
 -----------------------------------------------------------------------------
  energy-cutoff  :      400.00
  volume of cell :     4096.00
      direct lattice vectors                 reciprocal lattice vectors
    16.000000000  0.000000000  0.000000000     0.062500000  0.000000000  0.000000000
     0.000000000 16.000000000  0.000000000     0.000000000  0.062500000  0.000000000
     0.000000000  0.000000000 16.000000000     0.000000000  0.000000000  0.062500000

  length of vectors
    16.000000000 16.000000000 16.000000000     0.062500000  0.062500000  0.062500000


 FORCES acting on ions
    electron-ion (+dipol)            ewald-force                    non-local-force                 convergence-correction
 -----------------------------------------------------------------------------------------------
   -.165E+02 0.432E+02 -.921E-08   0.186E+02 -.486E+02 0.601E-18   -.216E+01 0.541E+01 0.000E+00   -.975E-07 0.612E-07 -.128E-14
   -.165E+02 -.432E+02 -.439E-07   0.186E+02 0.486E+02 -.219E-18   -.216E+01 -.541E+01 0.000E+00   -.975E-07 -.612E-07 -.996E-15
   0.356E+02 -.947E-05 0.354E-06   -.373E+02 0.126E-04 -.104E-17   0.165E+01 0.206E-05 0.000E+00   -.371E-06 0.236E-09 -.737E-14
 -----------------------------------------------------------------------------------------------
   0.267E+01 -.429E-05 0.301E-06   0.000E+00 0.569E-17 -.663E-18   -.267E+01 0.426E-05 0.000E+00   -.566E-06 0.291E-09 -.964E-14
 
 
 POSITION                                       TOTAL-FORCE (eV/Angst)
 -----------------------------------------------------------------------------------
      8.23763      6.99630      8.00000         0.000494     -0.000446      0.000000
      8.23763      9.00370      8.00000         0.000492      0.000441      0.000000
      7.82279      8.00000      8.00000        -0.000987      0.000005      0.000000
 -----------------------------------------------------------------------------------
    total drift:                               -0.001032     -0.000000      0.000000


--------------------------------------------------------------------------------------------------------



  FREE ENERGIE OF THE ION-ELECTRON SYSTEM (eV)
  ---------------------------------------------------
  free  energy   TOTEN  =       -12.09876927 eV

  energy  without entropy=      -12.09876927  energy(sigma->0) =      -12.09876927
 
 d Force = 0.5279068E-05[ 0.790E-07, 0.105E-04]  d Energy = 0.5209992E-05 0.691E-07
 d Force = 0.3570916E-01[ 0.357E-01, 0.357E-01]  d Ewald  = 0.3570916E-01-0.420E-08


--------------------------------------------------------------------------------------------------------


    POTLOK:  cpu time    0.9555: real time    0.9582


--------------------------------------------------------------------------------------------------------




--------------------------------------------------------------------------------------------------------


  
 reached required accuracy - stopping structural energy minimisation
     LOOP+:  cpu time   28.4683: real time   30.8833
    4ORBIT:  cpu time    0.0000: real time    0.0000
 


 total charge     
 
# of ion     s       p       d       tot
----------------------------------------
  1        0.626   0.048   0.000   0.674
  2        0.626   0.048   0.000   0.674
  3        0.858   1.505   0.000   2.363
------------------------------------------------
tot        2.109   1.602   0.000   3.711
 


 magnetization (x)
 
# of ion     s       p       d       tot
----------------------------------------
  1       -0.008   0.013   0.000   0.005
  2       -0.008   0.013   0.000   0.005
  3        0.097   0.848   0.000   0.945
------------------------------------------------
tot        0.082   0.874   0.000   0.956
 

 total amount of memory used by VASP on root node    37724. kBytes
========================================================================

   base      :      30000. kBytes
   nonl-proj :        272. kBytes
   fftplans  :       2081. kBytes
   grid      :       5166. kBytes
   one-center:          6. kBytes
   wavefun   :        199. kBytes
 
  
  
 General timing and accounting informations for this job:
 ========================================================
  
                  Total CPU time used (sec):      375.348
                            User time (sec):       54.701
                          System time (sec):      320.647
                         Elapsed time (sec):      407.141
  
                   Maximum memory used (kb):       78532.
                   Average memory used (kb):           0.
  
                          Minor page faults:        90842
                          Major page faults:           10
                 Voluntary context switches:         8671
