PROCAR lm decomposed
# of k-points:    1         # of bands:   8         # of ions:   3

 k-point    1 :    0.00000000 0.00000000 0.00000000     weight = 1.00000000

band   1 # energy  -16.67355705 # occ.  1.00000000
 
ion      s     py     pz     px    dxy    dyz    dz2    dxz    dx2    tot
  1  0.101  0.008  0.000  0.001  0.000  0.000  0.000  0.000  0.000  0.110
  2  0.101  0.008  0.000  0.001  0.000  0.000  0.000  0.000  0.000  0.110
  3  0.447  0.000  0.000  0.008  0.000  0.000  0.000  0.000  0.000  0.455
tot  0.649  0.016  0.000  0.010  0.000  0.000  0.000  0.000  0.000  0.675
 
band   2 # energy  -11.10812848 # occ.  1.00000000
 
ion      s     py     pz     px    dxy    dyz    dz2    dxz    dx2    tot
  1  0.183  0.006  0.000  0.002  0.000  0.000  0.000  0.000  0.000  0.192
  2  0.183  0.006  0.000  0.002  0.000  0.000  0.000  0.000  0.000  0.192
  3  0.000  0.324  0.000  0.000  0.000  0.000  0.000  0.000  0.000  0.324
tot  0.366  0.337  0.000  0.005  0.000  0.000  0.000  0.000  0.000  0.708
 
band   3 # energy   -6.58354877 # occ.  1.00000000
 
ion      s     py     pz     px    dxy    dyz    dz2    dxz    dx2    tot
  1  0.025  0.002  0.000  0.003  0.000  0.000  0.000  0.000  0.000  0.030
  2  0.025  0.002  0.000  0.003  0.000  0.000  0.000  0.000  0.000  0.030
  3  0.030  0.000  0.000  0.402  0.000  0.000  0.000  0.000  0.000  0.432
tot  0.080  0.004  0.000  0.409  0.000  0.000  0.000  0.000  0.000  0.493
 
band   4 # energy   -5.71630496 # occ.  1.00000000
 
ion      s     py     pz     px    dxy    dyz    dz2    dxz    dx2    tot
  1  0.000  0.000  0.007  0.000  0.000  0.000  0.000  0.000  0.000  0.007
  2  0.000  0.000  0.007  0.000  0.000  0.000  0.000  0.000  0.000  0.007
  3  0.000  0.000  0.443  0.000  0.000  0.000  0.000  0.000  0.000  0.443
tot  0.000  0.000  0.458  0.000  0.000  0.000  0.000  0.000  0.000  0.458
 
band   5 # energy   -0.50521820 # occ.  0.00000000
 
ion      s     py     pz     px    dxy    dyz    dz2    dxz    dx2    tot
  1  0.001  0.003  0.000  0.000  0.000  0.000  0.000  0.000  0.000  0.004
  2  0.001  0.003  0.000  0.000  0.000  0.000  0.000  0.000  0.000  0.004
  3  0.030  0.000  0.000  0.004  0.000  0.000  0.000  0.000  0.000  0.034
tot  0.031  0.006  0.000  0.004  0.000  0.000  0.000  0.000  0.000  0.042
 
band   6 # energy    0.15842208 # occ.  0.00000000
 
ion      s     py     pz     px    dxy    dyz    dz2    dxz    dx2    tot
  1  0.000  0.001  0.000  0.000  0.000  0.000  0.000  0.000  0.000  0.001
  2  0.000  0.001  0.000  0.000  0.000  0.000  0.000  0.000  0.000  0.001
  3  0.008  0.000  0.000  0.002  0.000  0.000  0.000  0.000  0.000  0.010
tot  0.009  0.002  0.000  0.002  0.000  0.000  0.000  0.000  0.000  0.013
 
band   7 # energy    0.32205523 # occ.  0.00000000
 
ion      s     py     pz     px    dxy    dyz    dz2    dxz    dx2    tot
  1  0.001  0.001  0.000  0.000  0.000  0.000  0.000  0.000  0.000  0.002
  2  0.001  0.001  0.000  0.000  0.000  0.000  0.000  0.000  0.000  0.002
  3  0.000  0.014  0.000  0.000  0.000  0.000  0.000  0.000  0.000  0.014
tot  0.001  0.016  0.000  0.001  0.000  0.000  0.000  0.000  0.000  0.018
 
band   8 # energy    0.40098756 # occ.  0.00000000
 
ion      s     py     pz     px    dxy    dyz    dz2    dxz    dx2    tot
  1  0.000  0.000  0.000  0.000  0.000  0.000  0.000  0.000  0.000  0.000
  2  0.000  0.000  0.000  0.000  0.000  0.000  0.000  0.000  0.000  0.000
  3  0.001  0.000  0.000  0.008  0.000  0.000  0.000  0.000  0.000  0.009
tot  0.002  0.000  0.000  0.008  0.000  0.000  0.000  0.000  0.000  0.010
 
# of k-points:    1         # of bands:   8         # of ions:   3

 k-point    1 :    0.00000000 0.00000000 0.00000000     weight = 1.00000000

band   1 # energy  -14.84139098 # occ.  1.00000000
 
ion      s     py     pz     px    dxy    dyz    dz2    dxz    dx2    tot
  1  0.125  0.008  0.000  0.001  0.000  0.000  0.000  0.000  0.000  0.135
  2  0.125  0.008  0.000  0.001  0.000  0.000  0.000  0.000  0.000  0.135
  3  0.380  0.000  0.000  0.021  0.000  0.000  0.000  0.000  0.000  0.401
tot  0.631  0.017  0.000  0.023  0.000  0.000  0.000  0.000  0.000  0.671
 
band   2 # energy  -10.61396447 # occ.  1.00000000
 
ion      s     py     pz     px    dxy    dyz    dz2    dxz    dx2    tot
  1  0.191  0.006  0.000  0.003  0.000  0.000  0.000  0.000  0.000  0.200
  2  0.191  0.006  0.000  0.003  0.000  0.000  0.000  0.000  0.000  0.200
  3  0.000  0.308  0.000  0.000  0.000  0.000  0.000  0.000  0.000  0.308
tot  0.382  0.320  0.000  0.005  0.000  0.000  0.000  0.000  0.000  0.707
 
band   3 # energy   -3.03903745 # occ.  0.00000000
 
ion      s     py     pz     px    dxy    dyz    dz2    dxz    dx2    tot
  1  0.015  0.001  0.000  0.006  0.000  0.000  0.000  0.000  0.000  0.021
  2  0.015  0.001  0.000  0.006  0.000  0.000  0.000  0.000  0.000  0.021
  3  0.044  0.000  0.000  0.299  0.000  0.000  0.000  0.000  0.000  0.343
tot  0.074  0.002  0.000  0.310  0.000  0.000  0.000  0.000  0.000  0.386
 
band   4 # energy   -2.44646790 # occ.  0.00000000
 
ion      s     py     pz     px    dxy    dyz    dz2    dxz    dx2    tot
  1  0.000  0.000  0.009  0.000  0.000  0.000  0.000  0.000  0.000  0.009
  2  0.000  0.000  0.009  0.000  0.000  0.000  0.000  0.000  0.000  0.009
  3  0.000  0.000  0.335  0.000  0.000  0.000  0.000  0.000  0.000  0.335
tot  0.000  0.000  0.353  0.000  0.000  0.000  0.000  0.000  0.000  0.353
 
band   5 # energy   -0.14458403 # occ.  0.00000000
 
ion      s     py     pz     px    dxy    dyz    dz2    dxz    dx2    tot
  1  0.000  0.002  0.000  0.000  0.000  0.000  0.000  0.000  0.000  0.002
  2  0.000  0.002  0.000  0.000  0.000  0.000  0.000  0.000  0.000  0.002
  3  0.014  0.000  0.000  0.003  0.000  0.000  0.000  0.000  0.000  0.016
tot  0.014  0.003  0.000  0.003  0.000  0.000  0.000  0.000  0.000  0.020
 
band   6 # energy    0.29478124 # occ.  0.00000000
 
ion      s     py     pz     px    dxy    dyz    dz2    dxz    dx2    tot
  1  0.000  0.002  0.000  0.000  0.000  0.000  0.000  0.000  0.000  0.002
  2  0.000  0.002  0.000  0.000  0.000  0.000  0.000  0.000  0.000  0.002
  3  0.015  0.000  0.000  0.004  0.000  0.000  0.000  0.000  0.000  0.019
tot  0.015  0.004  0.000  0.004  0.000  0.000  0.000  0.000  0.000  0.024
 
band   7 # energy    0.45921472 # occ.  0.00000000
 
ion      s     py     pz     px    dxy    dyz    dz2    dxz    dx2    tot
  1  0.000  0.001  0.000  0.000  0.000  0.000  0.000  0.000  0.000  0.002
  2  0.000  0.001  0.000  0.000  0.000  0.000  0.000  0.000  0.000  0.002
  3  0.000  0.009  0.000  0.000  0.000  0.000  0.000  0.000  0.000  0.009
tot  0.001  0.010  0.000  0.000  0.000  0.000  0.000  0.000  0.000  0.012
 
band   8 # energy    0.56351274 # occ.  0.00000000
 
ion      s     py     pz     px    dxy    dyz    dz2    dxz    dx2    tot
  1  0.000  0.000  0.000  0.000  0.000  0.000  0.000  0.000  0.000  0.000
  2  0.000  0.000  0.000  0.000  0.000  0.000  0.000  0.000  0.000  0.000
  3  0.000  0.000  0.000  0.001  0.000  0.000  0.000  0.000  0.000  0.001
tot  0.001  0.000  0.000  0.001  0.000  0.000  0.000  0.000  0.000  0.002
 
