 running on   96 total cores
 distrk:  each k-point on   96 cores,    1 groups
 distr:  one band on   48 cores,    2 groups
 using from now: INCAR     
 vasp.5.4.1 05Feb16 (build Feb 08 2018 09:21:51) complex                        
  
 POSCAR found :  2 types and       3 ions

 ----------------------------------------------------------------------------- 
|                                                                             |
|           W    W    AA    RRRRR   N    N  II  N    N   GGGG   !!!           |
|           W    W   A  A   R    R  NN   N  II  NN   N  G    G  !!!           |
|           W    W  A    A  R    R  N N  N  II  N N  N  G       !!!           |
|           W WW W  AAAAAA  RRRRR   N  N N  II  N  N N  G  GGG   !            |
|           WW  WW  A    A  R   R   N   NN  II  N   NN  G    G                |
|           W    W  A    A  R    R  N    N  II  N    N   GGGG   !!!           |
|                                                                             |
|      For optimal performance we recommend to set                            |
|        NCORE= 4 - approx SQRT( number of cores)                             |
|      NCORE specifies how many cores store one orbital (NPAR=cpu/NCORE).     |
|      This setting can  greatly improve the performance of VASP for DFT.     |
|      The default, NPAR=number of cores might be grossly inefficient         |
|      on modern multi-core architectures or massively parallel machines.     |
|      Do your own testing !!!!                                               |
|      Unfortunately you need to use the default for GW and RPA calculations. |
|      (for HF NCORE is supported but not extensively tested yet)             |
|                                                                             |
 ----------------------------------------------------------------------------- 

 LDA part: xc-table for Pade appr. of Perdew
 POSCAR, INCAR and KPOINTS ok, starting setup
 WARNING: small aliasing (wrap around) errors must be expected
 FFT: planning ...
 WAVECAR not read
 entering main loop
       N       E                     dE             d eps       ncg     rms          rms(c)
DAV:   1     0.377784566065E+02    0.37778E+02   -0.91306E+02    48   0.227E+02
DAV:   2     0.924422356695E+01   -0.28534E+02   -0.27609E+02    56   0.539E+01
DAV:   3     0.134327754247E+01   -0.79009E+01   -0.74290E+01    48   0.359E+01
DAV:   4     0.684223406995E+00   -0.65905E+00   -0.65905E+00    32   0.957E+00
DAV:   5     0.668658780306E+00   -0.15565E-01   -0.15565E-01    64   0.182E+00    0.972E+00
DAV:   6    -0.889325734675E+01   -0.95619E+01   -0.38745E+01    32   0.179E+01    0.568E+00
DAV:   7    -0.105803987764E+02   -0.16871E+01   -0.26208E+00    56   0.101E+01    0.318E+00
DAV:   8    -0.110149468299E+02   -0.43455E+00   -0.65568E-01    56   0.494E+00    0.163E+00
DAV:   9    -0.113524646531E+02   -0.33752E+00   -0.29659E-01    32   0.344E+00    0.433E-01
DAV:  10    -0.114312218241E+02   -0.78757E-01   -0.34345E-02    48   0.124E+00    0.229E-01
DAV:  11    -0.114695280906E+02   -0.38306E-01   -0.19296E-03    56   0.331E-01    0.133E-01
DAV:  12    -0.115316327606E+02   -0.62105E-01   -0.19710E-03    48   0.264E-01    0.568E-02
DAV:  13    -0.115545503007E+02   -0.22918E-01   -0.37828E-04    48   0.102E-01    0.348E-02
DAV:  14    -0.115737682115E+02   -0.19218E-01   -0.24312E-04    32   0.727E-02    0.213E-02
DAV:  15    -0.115872628765E+02   -0.13495E-01   -0.44523E-04    48   0.988E-02    0.125E-02
DAV:  16    -0.115875774636E+02   -0.31459E-03   -0.85611E-05    64   0.476E-02    0.997E-03
DAV:  17    -0.115888758674E+02   -0.12984E-02   -0.15336E-04    32   0.560E-02    0.574E-03
DAV:  18    -0.115903576045E+02   -0.14817E-02   -0.58411E-05    64   0.305E-02    0.458E-03
DAV:  19    -0.115913397122E+02   -0.98211E-03   -0.27620E-05    32   0.230E-02    0.293E-03
DAV:  20    -0.115916914816E+02   -0.35177E-03   -0.86820E-06    32   0.126E-02    0.145E-03
DAV:  21    -0.115917953815E+02   -0.10390E-03   -0.54143E-06    56   0.981E-03    0.862E-04
DAV:  22    -0.115918140587E+02   -0.18677E-04   -0.62319E-07    48   0.409E-03    0.565E-04
DAV:  23    -0.115918595415E+02   -0.45483E-04   -0.54688E-07    48   0.344E-03    0.335E-04
DAV:  24    -0.115918880183E+02   -0.28477E-04   -0.22306E-07    56   0.200E-03    0.213E-04
DAV:  25    -0.115918980654E+02   -0.10047E-04   -0.67071E-08    64   0.109E-03    0.118E-04
DAV:  26    -0.115919005986E+02   -0.25332E-05   -0.14865E-08    64   0.599E-04    0.808E-05
DAV:  27    -0.115919017387E+02   -0.11401E-05   -0.44365E-09    64   0.362E-04    0.445E-05
DAV:  28    -0.115919023354E+02   -0.59667E-06   -0.65407E-09    40   0.379E-04    0.271E-05
DAV:  29    -0.115919029971E+02   -0.66175E-06   -0.74341E-10    64   0.158E-04    0.162E-05
DAV:  30    -0.115919036610E+02   -0.66393E-06   -0.93697E-10    48   0.177E-04    0.874E-06
DAV:  31    -0.115919039538E+02   -0.29274E-06   -0.49514E-10    40   0.135E-04    0.491E-06
DAV:  32    -0.115919040546E+02   -0.10078E-06   -0.11135E-10    56   0.703E-05    0.311E-06
DAV:  33    -0.115919041080E+02   -0.53389E-07   -0.89750E-11    48   0.606E-05    0.194E-06
DAV:  34    -0.115919041307E+02   -0.22766E-07   -0.18261E-11    64   0.345E-05    0.127E-06
DAV:  35    -0.115919041449E+02   -0.14171E-07   -0.86953E-12    48   0.287E-05    0.924E-07
DAV:  36    -0.115919041518E+02   -0.68955E-08   -0.57909E-12    64   0.198E-05
   1 F= -.11591904E+02 E0= -.11591904E+02  d E =-.115919E+02  mag=     2.0000
 curvature:   0.00 expect dE= 0.000E+00 dE for cont linesearch  0.000E+00
 trial: gam= 0.00000 g(F)=  0.818E+00 g(S)=  0.000E+00 ort = 0.000E+00 (trialstep = 0.100E+01)
 search vector abs. value=  0.818E+00
 bond charge predicted
       N       E                     dE             d eps       ncg     rms          rms(c)
DAV:   1    -0.817166697546E+01    0.34202E+01   -0.69705E+01    32   0.671E+01    0.273E+00
DAV:   2    -0.115287444975E+02   -0.33571E+01   -0.49631E+00    32   0.140E+01    0.176E+00
DAV:   3    -0.117267395973E+02   -0.19800E+00   -0.17177E-01    56   0.271E+00    0.880E-01
DAV:   4    -0.117458380035E+02   -0.19098E-01   -0.37513E-02    56   0.103E+00    0.515E-01
DAV:   5    -0.117710319268E+02   -0.25194E-01   -0.11801E-02    32   0.571E-01    0.195E-01
DAV:   6    -0.117871772246E+02   -0.16145E-01   -0.22454E-03    48   0.304E-01    0.752E-02
DAV:   7    -0.117932223812E+02   -0.60452E-02   -0.20898E-04    32   0.988E-02    0.215E-02
DAV:   8    -0.117959079618E+02   -0.26856E-02   -0.52222E-05    48   0.483E-02    0.116E-02
DAV:   9    -0.117997252472E+02   -0.38173E-02   -0.66357E-05    32   0.444E-02    0.578E-03
DAV:  10    -0.118011682214E+02   -0.14430E-02   -0.37696E-05    48   0.290E-02    0.343E-03
DAV:  11    -0.118016157336E+02   -0.44751E-03   -0.97938E-06    48   0.145E-02    0.227E-03
DAV:  12    -0.118018582102E+02   -0.24248E-03   -0.17046E-05    48   0.179E-02    0.150E-03
DAV:  13    -0.118019113042E+02   -0.53094E-04   -0.28757E-06    40   0.757E-03    0.120E-03
DAV:  14    -0.118019966898E+02   -0.85386E-04   -0.31932E-06    32   0.763E-03    0.671E-04
DAV:  15    -0.118020575694E+02   -0.60880E-04   -0.79108E-07    40   0.388E-03    0.516E-04
DAV:  16    -0.118020904526E+02   -0.32883E-04   -0.61005E-07    48   0.302E-03    0.303E-04
DAV:  17    -0.118021016664E+02   -0.11214E-04   -0.20306E-07    48   0.198E-03    0.159E-04
DAV:  18    -0.118021066988E+02   -0.50323E-05   -0.75983E-08    64   0.125E-03    0.119E-04
DAV:  19    -0.118021105556E+02   -0.38568E-05   -0.51460E-08    32   0.983E-04    0.524E-05
DAV:  20    -0.118021119206E+02   -0.13651E-05   -0.95344E-09    56   0.414E-04    0.320E-05
DAV:  21    -0.118021131142E+02   -0.11936E-05   -0.87567E-09    56   0.447E-04    0.163E-05
DAV:  22    -0.118021137404E+02   -0.62616E-06   -0.21216E-09    56   0.230E-04    0.101E-05
DAV:  23    -0.118021139193E+02   -0.17893E-06   -0.10517E-09    64   0.238E-04    0.630E-06
DAV:  24    -0.118021140325E+02   -0.11321E-06   -0.32574E-10    48   0.124E-04    0.426E-06
DAV:  25    -0.118021140768E+02   -0.44217E-07   -0.61577E-11    40   0.490E-05    0.228E-06
DAV:  26    -0.118021141047E+02   -0.27937E-07   -0.40776E-11    48   0.415E-05    0.156E-06
DAV:  27    -0.118021141241E+02   -0.19404E-07   -0.22293E-11    40   0.290E-05    0.787E-07
DAV:  28    -0.118021141303E+02   -0.62288E-08   -0.32951E-12    56   0.143E-05
   2 F= -.11802114E+02 E0= -.11802114E+02  d E =-.210210E+00  mag=     2.0000
 trial-energy change:   -0.210210  1 .order   -0.233318   -0.817750    0.351114
 step:   0.6735(harm=  0.6996)  dis= 0.10756  next Energy=   -11.860233 (dE=-0.268E+00)
 bond charge predicted
       N       E                     dE             d eps       ncg     rms          rms(c)
DAV:   1    -0.118284929994E+02   -0.26379E-01   -0.62475E+00    32   0.205E+01    0.880E-01
DAV:   2    -0.118365831402E+02   -0.80901E-02   -0.98300E-02    40   0.204E+00    0.467E-01
DAV:   3    -0.118507695183E+02   -0.14186E-01   -0.71951E-03    56   0.642E-01    0.222E-01
DAV:   4    -0.118547447565E+02   -0.39752E-02   -0.11893E-03    48   0.193E-01    0.115E-01
DAV:   5    -0.118588759023E+02   -0.41311E-02   -0.50037E-04    48   0.131E-01    0.321E-02
DAV:   6    -0.118605055833E+02   -0.16297E-02   -0.24608E-05    32   0.369E-02    0.110E-02
DAV:   7    -0.118613890097E+02   -0.88343E-03   -0.94513E-06    32   0.192E-02    0.566E-03
DAV:   8    -0.118620259032E+02   -0.63689E-03   -0.73268E-06    32   0.142E-02    0.265E-03
DAV:   9    -0.118624398443E+02   -0.41394E-03   -0.46377E-06    48   0.107E-02    0.164E-03
DAV:  10    -0.118627064306E+02   -0.26659E-03   -0.46311E-06    48   0.918E-03    0.974E-04
DAV:  11    -0.118627493128E+02   -0.42882E-04   -0.21902E-06    48   0.621E-03    0.574E-04
DAV:  12    -0.118627483598E+02    0.95292E-06   -0.73621E-07    48   0.392E-03    0.480E-04
DAV:  13    -0.118627666357E+02   -0.18276E-04   -0.25312E-07    40   0.259E-03    0.261E-04
DAV:  14    -0.118627780958E+02   -0.11460E-04   -0.10078E-07    40   0.191E-03    0.189E-04
DAV:  15    -0.118627866329E+02   -0.85371E-05   -0.35826E-08    40   0.121E-03    0.129E-04
DAV:  16    -0.118627896117E+02   -0.29788E-05   -0.27010E-08    48   0.937E-04    0.605E-05
DAV:  17    -0.118627903789E+02   -0.76720E-06   -0.66974E-09    56   0.436E-04    0.424E-05
DAV:  18    -0.118627913136E+02   -0.93468E-06   -0.66500E-09    56   0.398E-04    0.262E-05
DAV:  19    -0.118627918067E+02   -0.49306E-06   -0.16017E-09    56   0.212E-04    0.129E-05
DAV:  20    -0.118627921349E+02   -0.32823E-06   -0.60411E-10    56   0.140E-04    0.894E-06
DAV:  21    -0.118627923253E+02   -0.19041E-06   -0.42298E-10    56   0.128E-04    0.380E-06
DAV:  22    -0.118627923970E+02   -0.71670E-07   -0.10816E-10    32   0.695E-05    0.236E-06
DAV:  23    -0.118627924278E+02   -0.30810E-07   -0.37197E-11    64   0.441E-05    0.166E-06
DAV:  24    -0.118627924405E+02   -0.12749E-07   -0.16023E-11    32   0.368E-05    0.913E-07
DAV:  25    -0.118627924465E+02   -0.59852E-08   -0.81091E-12    48   0.190E-05
   3 F= -.11862792E+02 E0= -.11862792E+02  d E =-.270888E+00  mag=     2.0000
 curvature:  -0.35 expect dE=-0.162E+00 dE for cont linesearch -0.262E-04
 trial: gam= 0.57921 g(F)=  0.466E+00 g(S)=  0.000E+00 ort =-0.785E-02 (trialstep = 0.935E+00)
 search vector abs. value=  0.731E+00
 bond charge predicted
       N       E                     dE             d eps       ncg     rms          rms(c)
DAV:   1    -0.112509571411E+02    0.61184E+00   -0.17251E+01    32   0.363E+01    0.139E+00
DAV:   2    -0.120026966154E+02   -0.75174E+00   -0.18085E+00    40   0.675E+00    0.911E-01
DAV:   3    -0.120580833918E+02   -0.55387E-01   -0.84195E-02    48   0.155E+00    0.460E-01
DAV:   4    -0.120676600848E+02   -0.95767E-02   -0.12639E-02    40   0.762E-01    0.204E-01
DAV:   5    -0.120789929289E+02   -0.11333E-01   -0.42825E-03    40   0.402E-01    0.703E-02
DAV:   6    -0.120835405335E+02   -0.45476E-02   -0.46979E-04    32   0.150E-01    0.312E-02
DAV:   7    -0.120865952098E+02   -0.30547E-02   -0.83360E-05    32   0.580E-02    0.172E-02
DAV:   8    -0.120886599333E+02   -0.20647E-02   -0.35097E-05    64   0.354E-02    0.748E-03
DAV:   9    -0.120895684392E+02   -0.90851E-03   -0.11190E-05    48   0.170E-02    0.415E-03
DAV:  10    -0.120902460030E+02   -0.67756E-03   -0.13175E-05    32   0.164E-02    0.261E-03
DAV:  11    -0.120906838823E+02   -0.43788E-03   -0.18631E-05    48   0.187E-02    0.132E-03
DAV:  12    -0.120907410755E+02   -0.57193E-04   -0.25751E-06    56   0.713E-03    0.929E-04
DAV:  13    -0.120907883500E+02   -0.47274E-04   -0.30987E-06    32   0.728E-03    0.591E-04
DAV:  14    -0.120908315307E+02   -0.43181E-04   -0.10970E-06    56   0.445E-03    0.410E-04
DAV:  15    -0.120908501050E+02   -0.18574E-04   -0.16833E-07    32   0.191E-03    0.276E-04
DAV:  16    -0.120908624122E+02   -0.12307E-04   -0.16519E-07    48   0.183E-03    0.155E-04
DAV:  17    -0.120908657489E+02   -0.33367E-05   -0.53774E-08    48   0.109E-03    0.973E-05
DAV:  18    -0.120908677451E+02   -0.19962E-05   -0.33847E-08    48   0.823E-04    0.602E-05
DAV:  19    -0.120908697798E+02   -0.20347E-05   -0.14949E-08    56   0.530E-04    0.371E-05
DAV:  20    -0.120908707612E+02   -0.98137E-06   -0.58579E-09    48   0.331E-04    0.182E-05
DAV:  21    -0.120908711421E+02   -0.38096E-06   -0.14575E-09    56   0.168E-04    0.107E-05
DAV:  22    -0.120908714485E+02   -0.30635E-06   -0.11387E-09    48   0.168E-04    0.548E-06
DAV:  23    -0.120908715286E+02   -0.80133E-07   -0.14287E-10    56   0.609E-05    0.312E-06
DAV:  24    -0.120908715860E+02   -0.57412E-07   -0.52855E-11    48   0.566E-05    0.176E-06
DAV:  25    -0.120908716151E+02   -0.29120E-07   -0.25580E-11    48   0.405E-05    0.104E-06
DAV:  26    -0.120908716227E+02   -0.75846E-08   -0.80735E-12    40   0.199E-05
   4 F= -.12090872E+02 E0= -.12090872E+02  d E =-.228079E+00  mag=     2.0000
 trial-energy change:   -0.228079  1 .order   -0.224599   -0.431127   -0.018072
 step:   0.9736(harm=  0.9756)  dis= 0.11517  next Energy=   -12.091247 (dE=-0.228E+00)
 bond charge predicted
       N       E                     dE             d eps       ncg     rms          rms(c)
DAV:   1    -0.120911744118E+02   -0.30280E-03   -0.25527E-02    32   0.142E+00    0.581E-02
DAV:   2    -0.120908471789E+02    0.32723E-03   -0.37088E-04    40   0.141E-01    0.296E-02
DAV:   3    -0.120909663263E+02   -0.11915E-03   -0.59082E-05    56   0.544E-02    0.167E-02
DAV:   4    -0.120910627539E+02   -0.96428E-04   -0.18632E-05    48   0.260E-02    0.664E-03
DAV:   5    -0.120911359542E+02   -0.73200E-04   -0.20101E-06    40   0.837E-03    0.356E-03
DAV:   6    -0.120911968811E+02   -0.60927E-04   -0.19236E-06    48   0.730E-03    0.119E-03
DAV:   7    -0.120912118534E+02   -0.14972E-04   -0.12399E-07    64   0.268E-03    0.497E-04
DAV:   8    -0.120912227820E+02   -0.10929E-04   -0.43087E-08    48   0.121E-03    0.319E-04
DAV:   9    -0.120912365024E+02   -0.13720E-04   -0.80670E-08    48   0.126E-03    0.149E-04
DAV:  10    -0.120912435841E+02   -0.70817E-05   -0.36662E-08    40   0.865E-04    0.108E-04
DAV:  11    -0.120912478822E+02   -0.42981E-05   -0.60290E-08    40   0.955E-04    0.548E-05
DAV:  12    -0.120912485795E+02   -0.69736E-06   -0.13928E-08    56   0.470E-04    0.405E-05
DAV:  13    -0.120912496562E+02   -0.10767E-05   -0.12708E-08    32   0.427E-04    0.285E-05
DAV:  14    -0.120912504080E+02   -0.75179E-06   -0.52848E-09    40   0.272E-04    0.161E-05
DAV:  15    -0.120912508331E+02   -0.42504E-06   -0.15307E-09    56   0.163E-04    0.117E-05
DAV:  16    -0.120912510381E+02   -0.20501E-06   -0.10176E-09    48   0.167E-04    0.598E-06
DAV:  17    -0.120912510658E+02   -0.27715E-07   -0.14592E-10    64   0.646E-05    0.415E-06
DAV:  18    -0.120912511068E+02   -0.41017E-07   -0.11670E-10    64   0.606E-05    0.229E-06
DAV:  19    -0.120912511337E+02   -0.26933E-07   -0.37206E-11    56   0.402E-05    0.117E-06
DAV:  20    -0.120912511474E+02   -0.13619E-07   -0.89972E-12    48   0.221E-05    0.681E-07
DAV:  21    -0.120912511517E+02   -0.43521E-08   -0.21227E-12    64   0.112E-05
   5 F= -.12091251E+02 E0= -.12091251E+02  d E =-.228459E+00  mag=     2.0000
 curvature:  -0.77 expect dE=-0.146E-01 dE for cont linesearch -0.627E-07
 trial: gam= 0.16402 g(F)=  0.190E-01 g(S)=  0.000E+00 ort = 0.244E-03 (trialstep = 0.942E+00)
 search vector abs. value=  0.387E-01
 bond charge predicted
       N       E                     dE             d eps       ncg     rms          rms(c)
DAV:   1    -0.120750731712E+02    0.16178E-01   -0.21782E+00    32   0.121E+01    0.468E-01
DAV:   2    -0.120773611316E+02   -0.22880E-02   -0.49951E-02    40   0.144E+00    0.212E-01
DAV:   3    -0.120914307426E+02   -0.14070E-01   -0.42249E-03    48   0.462E-01    0.823E-02
DAV:   4    -0.120939669089E+02   -0.25362E-02   -0.42191E-04    48   0.105E-01    0.500E-02
DAV:   5    -0.120960861191E+02   -0.21192E-02   -0.18088E-04    32   0.660E-02    0.212E-02
DAV:   6    -0.120971907735E+02   -0.11047E-02   -0.43888E-05    32   0.342E-02    0.538E-03
DAV:   7    -0.120976841333E+02   -0.49336E-03   -0.71899E-06    48   0.186E-02    0.305E-03
DAV:   8    -0.120980603860E+02   -0.37625E-03   -0.26140E-06    32   0.104E-02    0.177E-03
DAV:   9    -0.120984049768E+02   -0.34459E-03   -0.42512E-06    64   0.101E-02    0.849E-04
DAV:  10    -0.120984684761E+02   -0.63499E-04   -0.96419E-07    40   0.445E-03    0.600E-04
DAV:  11    -0.120984941440E+02   -0.25668E-04   -0.16769E-06    48   0.512E-03    0.364E-04
DAV:  12    -0.120985048199E+02   -0.10676E-04   -0.56535E-07    40   0.348E-03    0.259E-04
DAV:  13    -0.120985212995E+02   -0.16480E-04   -0.20642E-07    40   0.221E-03    0.177E-04
DAV:  14    -0.120985349830E+02   -0.13684E-04   -0.12697E-07    32   0.171E-03    0.101E-04
DAV:  15    -0.120985393282E+02   -0.43452E-05   -0.30680E-08    48   0.786E-04    0.620E-05
DAV:  16    -0.120985407039E+02   -0.13757E-05   -0.16319E-08    48   0.599E-04    0.348E-05
DAV:  17    -0.120985411862E+02   -0.48233E-06   -0.45350E-09    64   0.332E-04    0.235E-05
DAV:  18    -0.120985417372E+02   -0.55105E-06   -0.30442E-09    64   0.248E-04    0.145E-05
DAV:  19    -0.120985421736E+02   -0.43638E-06   -0.20449E-09    48   0.203E-04    0.734E-06
DAV:  20    -0.120985423255E+02   -0.15185E-06   -0.37686E-10    64   0.916E-05    0.491E-06
DAV:  21    -0.120985424636E+02   -0.13814E-06   -0.31889E-10    56   0.103E-04    0.234E-06
DAV:  22    -0.120985424983E+02   -0.34707E-07   -0.31122E-11    40   0.450E-05    0.156E-06
DAV:  23    -0.120985425212E+02   -0.22929E-07   -0.13083E-11    48   0.320E-05    0.943E-07
DAV:  24    -0.120985425302E+02   -0.90009E-08   -0.46363E-12    56   0.183E-05
   6 F= -.12098543E+02 E0= -.12098543E+02  d E =-.729138E-02  mag=     2.0000
 trial-energy change:   -0.007291  1 .order   -0.007691   -0.017917    0.002536
 step:   0.8125(harm=  0.8256)  dis= 0.02718  next Energy=   -12.098718 (dE=-0.747E-02)
 bond charge predicted
       N       E                     dE             d eps       ncg     rms          rms(c)
DAV:   1    -0.120984515281E+02    0.90993E-04   -0.40963E-02    32   0.165E+00    0.650E-02
DAV:   2    -0.120982360677E+02    0.21546E-03   -0.73709E-04    40   0.180E-01    0.288E-02
DAV:   3    -0.120984343689E+02   -0.19830E-03   -0.48281E-05    64   0.604E-02    0.114E-02
DAV:   4    -0.120984786544E+02   -0.44286E-04   -0.47195E-06    40   0.110E-02    0.645E-03
DAV:   5    -0.120985670793E+02   -0.88425E-04   -0.66405E-06    56   0.116E-02    0.236E-03
DAV:   6    -0.120986281391E+02   -0.61060E-04   -0.11221E-06    56   0.540E-03    0.679E-04
DAV:   7    -0.120986679891E+02   -0.39850E-04   -0.16984E-07    64   0.306E-03    0.394E-04
DAV:   8    -0.120986959893E+02   -0.28000E-04   -0.12864E-07    64   0.216E-03    0.204E-04
DAV:   9    -0.120987113864E+02   -0.15397E-04   -0.94718E-08    56   0.154E-03    0.114E-04
DAV:  10    -0.120987148874E+02   -0.35010E-05   -0.37304E-08    48   0.886E-04    0.772E-05
DAV:  11    -0.120987145540E+02    0.33346E-06   -0.34050E-08    40   0.737E-04    0.485E-05
DAV:  12    -0.120987151916E+02   -0.63766E-06   -0.99741E-09    48   0.429E-04    0.344E-05
DAV:  13    -0.120987168605E+02   -0.16689E-05   -0.99997E-09    40   0.409E-04    0.200E-05
DAV:  14    -0.120987176994E+02   -0.83888E-06   -0.17839E-09    40   0.213E-04    0.137E-05
DAV:  15    -0.120987180492E+02   -0.34980E-06   -0.77049E-10    40   0.174E-04    0.827E-06
DAV:  16    -0.120987181570E+02   -0.10779E-06   -0.35000E-10    56   0.122E-04    0.468E-06
DAV:  17    -0.120987182169E+02   -0.59923E-07   -0.10351E-10    64   0.642E-05    0.304E-06
DAV:  18    -0.120987182786E+02   -0.61685E-07   -0.79003E-11    56   0.602E-05    0.154E-06
DAV:  19    -0.120987183001E+02   -0.21528E-07   -0.13580E-11    64   0.281E-05    0.987E-07
DAV:  20    -0.120987183104E+02   -0.10206E-07   -0.11342E-11    48   0.261E-05    0.551E-07
DAV:  21    -0.120987183133E+02   -0.29069E-08   -0.17231E-12    56   0.116E-05
   7 F= -.12098718E+02 E0= -.12098718E+02  d E =-.746716E-02  mag=     2.0000
 curvature:  -0.83 expect dE=-0.121E-03 dE for cont linesearch -0.120E-09
 trial: gam=-0.05481 g(F)=  0.146E-03 g(S)=  0.000E+00 ort =-0.237E-05 (trialstep = 0.916E+00)
 search vector abs. value=  0.263E-03
 bond charge predicted
       N       E                     dE             d eps       ncg     rms          rms(c)
DAV:   1    -0.120987555574E+02   -0.37247E-04   -0.47983E-03    32   0.610E-01    0.270E-02
DAV:   2    -0.120987140859E+02    0.41472E-04   -0.67698E-05    48   0.601E-02    0.142E-02
DAV:   3    -0.120987106752E+02    0.34107E-05   -0.13550E-05    48   0.245E-02    0.800E-03
DAV:   4    -0.120987243146E+02   -0.13639E-04   -0.37516E-06    56   0.121E-02    0.327E-03
DAV:   5    -0.120987383512E+02   -0.14037E-04   -0.52418E-07    48   0.390E-03    0.185E-03
DAV:   6    -0.120987514981E+02   -0.13147E-04   -0.53756E-07    48   0.359E-03    0.555E-04
DAV:   7    -0.120987553875E+02   -0.38894E-05   -0.31333E-08    64   0.131E-03    0.224E-04
DAV:   8    -0.120987586767E+02   -0.32892E-05   -0.10226E-08    40   0.613E-04    0.139E-04
DAV:   9    -0.120987618298E+02   -0.31531E-05   -0.15709E-08    56   0.554E-04    0.658E-05
DAV:  10    -0.120987629706E+02   -0.11408E-05   -0.71613E-09    32   0.402E-04    0.472E-05
DAV:  11    -0.120987632503E+02   -0.27969E-06   -0.11428E-08    40   0.463E-04    0.260E-05
DAV:  12    -0.120987633199E+02   -0.69592E-07   -0.29350E-09    48   0.231E-04    0.182E-05
DAV:  13    -0.120987635908E+02   -0.27097E-06   -0.28778E-09    32   0.216E-04    0.124E-05
DAV:  14    -0.120987637701E+02   -0.17927E-06   -0.10536E-09    48   0.137E-04    0.708E-06
DAV:  15    -0.120987638871E+02   -0.11695E-06   -0.28893E-10    40   0.817E-05    0.526E-06
DAV:  16    -0.120987639867E+02   -0.99604E-07   -0.18693E-10    56   0.816E-05    0.258E-06
DAV:  17    -0.120987640252E+02   -0.38564E-07   -0.31237E-11    64   0.419E-05    0.182E-06
DAV:  18    -0.120987640508E+02   -0.25574E-07   -0.22506E-11    56   0.348E-05    0.897E-07
DAV:  19    -0.120987640586E+02   -0.77689E-08   -0.62084E-12    64   0.178E-05
   8 F= -.12098764E+02 E0= -.12098764E+02  d E =-.457453E-04  mag=     2.0000
 trial-energy change:   -0.000046  1 .order   -0.000045   -0.000134    0.000043
 step:   0.6947(harm=  0.6929)  dis= 0.00161  next Energy=   -12.098769 (dE=-0.510E-04)
 bond charge predicted
       N       E                     dE             d eps       ncg     rms          rms(c)
DAV:   1    -0.120987687963E+02   -0.47455E-05   -0.28093E-04    32   0.148E-01    0.655E-03
DAV:   2    -0.120987621033E+02    0.66930E-05   -0.41003E-06    40   0.147E-02    0.344E-03
DAV:   3    -0.120987582544E+02    0.38489E-05   -0.86472E-07    48   0.629E-03    0.195E-03
DAV:   4    -0.120987606928E+02   -0.24384E-05   -0.24202E-07    48   0.327E-03    0.791E-04
DAV:   5    -0.120987640369E+02   -0.33441E-05   -0.39117E-08    56   0.115E-03    0.446E-04
DAV:   6    -0.120987669784E+02   -0.29415E-05   -0.32535E-08    48   0.907E-04    0.133E-04
DAV:   7    -0.120987675519E+02   -0.57353E-06   -0.18423E-09    64   0.335E-04    0.554E-05
DAV:   8    -0.120987679805E+02   -0.42854E-06   -0.62049E-10    48   0.131E-04    0.343E-05
DAV:   9    -0.120987685655E+02   -0.58503E-06   -0.14998E-09    48   0.170E-04    0.159E-05
DAV:  10    -0.120987688808E+02   -0.31525E-06   -0.58804E-10    40   0.132E-04    0.114E-05
DAV:  11    -0.120987690895E+02   -0.20878E-06   -0.71982E-10    40   0.132E-04    0.639E-06
DAV:  12    -0.120987691378E+02   -0.48224E-07   -0.19335E-10    64   0.613E-05    0.447E-06
DAV:  13    -0.120987691991E+02   -0.61319E-07   -0.19707E-10    32   0.612E-05    0.302E-06
DAV:  14    -0.120987692412E+02   -0.42144E-07   -0.79394E-11    48   0.398E-05    0.176E-06
DAV:  15    -0.120987692612E+02   -0.19944E-07   -0.17177E-11    48   0.235E-05    0.125E-06
DAV:  16    -0.120987692686E+02   -0.73918E-08   -0.13136E-11    56   0.248E-05
   9 F= -.12098769E+02 E0= -.12098769E+02  d E =-.509553E-04  mag=     2.0000
 curvature:  -0.62 expect dE=-0.556E-07 dE for cont linesearch -0.301E-09
 trial: gam= 0.01837 g(F)=  0.894E-07 g(S)=  0.000E+00 ort =-0.356E-06 (trialstep = 0.872E+00)
 search vector abs. value=  0.165E-06
 reached required accuracy - stopping structural energy minimisation
Running "mpirun -np 96 vasp"
