<?xml version="1.0" encoding="ISO-8859-1"?>
<modeling>
 <generator>
  <i name="program" type="string">vasp </i>
  <i name="version" type="string">5.4.1  </i>
  <i name="subversion" type="string">05Feb16 (build Feb 08 2018 09:21:51) complex                          parallel </i>
  <i name="platform" type="string">LinuxIFC </i>
  <i name="date" type="string">2019 11 27 </i>
  <i name="time" type="string">15:59:42 </i>
 </generator>
 <incar>
  <i type="string" name="PREC">normal</i>
  <i type="int" name="ISPIN">     2</i>
  <i type="int" name="IBRION">     2</i>
  <i name="EDIFF">      0.00000001</i>
  <i name="EDIFFG">     -0.01000000</i>
  <i type="int" name="NSW">   500</i>
  <i name="ENCUT">    400.00000000</i>
  <v name="MAGMOM">      0.00000000      2.00000000      0.00000000</v>
  <i type="int" name="ISMEAR">     0</i>
  <i name="SIGMA">      0.01000000</i>
  <i type="logical" name="LWAVE"> F  </i>
  <i type="logical" name="LCHARG"> F  </i>
  <i type="logical" name="LORBIT"> F  </i>
  <v type="int" name="KPOINT_BSE">    -1     0     0     0</v>
 </incar>
 <kpoints>
  <generation param="Monkhorst-Pack">
   <v type="int" name="divisions">       1        1        1 </v>
   <v name="usershift">      0.00000000       0.00000000       0.00000000 </v>
   <v name="genvec1">      1.00000000       0.00000000       0.00000000 </v>
   <v name="genvec2">      0.00000000       1.00000000       0.00000000 </v>
   <v name="genvec3">      0.00000000       0.00000000       1.00000000 </v>
   <v name="shift">      0.00000000       0.00000000       0.00000000 </v>
  </generation>
  <varray name="kpointlist" >
   <v>       0.00000000       0.00000000       0.00000000 </v>
  </varray>
  <varray name="weights" >
   <v>       1.00000000 </v>
  </varray>
 </kpoints>
 <parameters>
  <separator name="general" >
   <i type="string" name="SYSTEM">unknown system</i>
   <i type="logical" name="LCOMPAT"> F  </i>
  </separator>
  <separator name="electronic" >
   <i type="string" name="PREC">normal</i>
   <i name="ENMAX">    400.00000000</i>
   <i name="ENAUG">    644.87300000</i>
   <i name="EDIFF">      0.00000001</i>
   <i type="int" name="IALGO">    38</i>
   <i type="int" name="IWAVPR">    11</i>
   <i type="int" name="NBANDS">     8</i>
   <i name="NELECT">      6.00000000</i>
   <i type="int" name="TURBO">     0</i>
   <i type="int" name="IRESTART">     0</i>
   <i type="int" name="NREBOOT">     0</i>
   <i type="int" name="NMIN">     0</i>
   <i name="EREF">      0.00000000</i>
   <separator name="electronic smearing" >
    <i type="int" name="ISMEAR">     0</i>
    <i name="SIGMA">      0.01000000</i>
    <i name="KSPACING">      0.50000000</i>
    <i type="logical" name="KGAMMA"> T  </i>
   </separator>
   <separator name="electronic projectors" >
    <i type="logical" name="LREAL"> F  </i>
    <v name="ROPT">      0.00000000      0.00000000</v>
    <i type="int" name="LMAXPAW">  -100</i>
    <i type="int" name="LMAXMIX">     2</i>
    <i type="logical" name="NLSPLINE"> F  </i>
   </separator>
   <separator name="electronic startup" >
    <i type="int" name="ISTART">     0</i>
    <i type="int" name="ICHARG">     2</i>
    <i type="int" name="INIWAV">     1</i>
   </separator>
   <separator name="electronic spin" >
    <i type="int" name="ISPIN">     2</i>
    <i type="logical" name="LNONCOLLINEAR"> F  </i>
    <v name="MAGMOM">      0.00000000      2.00000000      0.00000000</v>
    <i name="NUPDOWN">     -1.00000000</i>
    <i type="logical" name="LSORBIT"> F  </i>
    <v name="SAXIS">      0.00000000      0.00000000      1.00000000</v>
    <i type="logical" name="LSPIRAL"> F  </i>
    <v name="QSPIRAL">      0.00000000      0.00000000      0.00000000</v>
    <i type="logical" name="LZEROZ"> F  </i>
   </separator>
   <separator name="electronic exchange-correlation" >
    <i type="logical" name="LASPH"> F  </i>
    <i type="logical" name="LMETAGGA"> F  </i>
   </separator>
   <separator name="electronic convergence" >
    <i type="int" name="NELM">    60</i>
    <i type="int" name="NELMDL">    -5</i>
    <i type="int" name="NELMIN">     2</i>
    <i name="ENINI">    400.00000000</i>
    <separator name="electronic convergence detail" >
     <i type="logical" name="LDIAG"> T  </i>
     <i type="logical" name="LSUBROT"> F  </i>
     <i name="WEIMIN">      0.00100000</i>
     <i name="EBREAK">      0.00000000</i>
     <i name="DEPER">      0.30000000</i>
     <i type="int" name="NRMM">     4</i>
     <i name="TIME">      0.40000000</i>
    </separator>
   </separator>
   <separator name="electronic mixer" >
    <i name="AMIX">      0.40000000</i>
    <i name="BMIX">      1.00000000</i>
    <i name="AMIN">      0.10000000</i>
    <i name="AMIX_MAG">      1.60000000</i>
    <i name="BMIX_MAG">      1.00000000</i>
    <separator name="electronic mixer details" >
     <i type="int" name="IMIX">     4</i>
     <i type="logical" name="MIXFIRST"> F  </i>
     <i type="int" name="MAXMIX">   -45</i>
     <i name="WC">    100.00000000</i>
     <i type="int" name="INIMIX">     1</i>
     <i type="int" name="MIXPRE">     1</i>
     <i type="int" name="MREMOVE">     5</i>
    </separator>
   </separator>
   <separator name="electronic dipolcorrection" >
    <i type="logical" name="LDIPOL"> F  </i>
    <i type="logical" name="LMONO"> F  </i>
    <i type="int" name="IDIPOL">     0</i>
    <i name="EPSILON">      1.00000000</i>
    <v name="DIPOL">   -100.00000000   -100.00000000   -100.00000000</v>
    <i name="EFIELD">      0.00000000</i>
   </separator>
  </separator>
  <separator name="grids" >
   <i type="int" name="NGX">    80</i>
   <i type="int" name="NGY">    80</i>
   <i type="int" name="NGZ">    80</i>
   <i type="int" name="NGXF">   160</i>
   <i type="int" name="NGYF">   160</i>
   <i type="int" name="NGZF">   160</i>
   <i type="logical" name="ADDGRID"> F  </i>
  </separator>
  <separator name="ionic" >
   <i type="int" name="NSW">   500</i>
   <i type="int" name="IBRION">     2</i>
   <i type="int" name="ISIF">     2</i>
   <i name="PSTRESS">      0.00000000</i>
   <i name="EDIFFG">     -0.01000000</i>
   <i type="int" name="NFREE">     1</i>
   <i name="POTIM">      0.50000000</i>
   <i name="SMASS">     -3.00000000</i>
   <i name="SCALEE">      1.00000000</i>
  </separator>
  <separator name="ionic md" >
   <i name="TEBEG">      0.00010000</i>
   <i name="TEEND">      0.00010000</i>
   <i type="int" name="NBLOCK">     1</i>
   <i type="int" name="KBLOCK">   500</i>
   <i type="int" name="NPACO">   256</i>
   <i name="APACO">     16.00000000</i>
  </separator>
  <separator name="symmetry" >
   <i type="int" name="ISYM">     2</i>
   <i name="SYMPREC">      0.00001000</i>
  </separator>
  <separator name="dos" >
   <i type="logical" name="LORBIT"> F  </i>
   <v name="RWIGS">     -1.00000000     -1.00000000</v>
   <i type="int" name="NEDOS">   301</i>
   <i name="EMIN">     10.00000000</i>
   <i name="EMAX">    -10.00000000</i>
   <i name="EFERMI">      0.00000000</i>
  </separator>
  <separator name="writing" >
   <i type="int" name="NWRITE">     2</i>
   <i type="logical" name="LWAVE"> F  </i>
   <i type="logical" name="LCHARG"> F  </i>
   <i type="logical" name="LPARD"> F  </i>
   <i type="logical" name="LVTOT"> F  </i>
   <i type="logical" name="LVHAR"> F  </i>
   <i type="logical" name="LELF"> F  </i>
   <i type="logical" name="LOPTICS"> F  </i>
   <v name="STM">      0.00000000      0.00000000      0.00000000      0.00000000      0.00000000      0.00000000      0.00000000</v>
  </separator>
  <separator name="performance" >
   <i type="int" name="NPAR">     2</i>
   <i type="int" name="NSIM">     4</i>
   <i type="int" name="NBLK">    -1</i>
   <i type="logical" name="LPLANE"> T  </i>
   <i type="logical" name="LSCALAPACK"> F  </i>
   <i type="logical" name="LSCAAWARE"> F  </i>
   <i type="logical" name="LSCALU"> F  </i>
   <i type="logical" name="LASYNC"> F  </i>
   <i type="logical" name="LORBITALREAL"> F  </i>
  </separator>
  <separator name="miscellaneous" >
   <i type="int" name="IDIOT">     3</i>
   <i type="logical" name="LMUSIC"> F  </i>
   <v name="POMASS">      1.00000000     12.01100000</v>
   <v name="DARWINR">      0.00000000      0.00000000</v>
   <v name="DARWINV">      1.00000000      1.00000000</v>
   <i type="logical" name="LCORR"> T  </i>
  </separator>
  <i type="logical" name="GGA_COMPAT"> T  </i>
  <i type="logical" name="LBERRY"> F  </i>
  <i type="int" name="ICORELEVEL">     0</i>
  <i type="logical" name="LDAU"> F  </i>
  <i type="int" name="I_CONSTRAINED_M">     0</i>
  <separator name="electronic exchange-correlation" >
   <i type="string" name="GGA">--</i>
   <i type="int" name="VOSKOWN">     0</i>
   <i type="logical" name="LHFCALC"> F  </i>
   <i type="string" name="PRECFOCK"></i>
   <i type="logical" name="LSYMGRAD"> F  </i>
   <i type="logical" name="LHFONE"> F  </i>
   <i type="logical" name="LRHFCALC"> F  </i>
   <i type="logical" name="LTHOMAS"> F  </i>
   <i type="logical" name="LMODELHF"> F  </i>
   <i name="ENCUT4O">     -1.00000000</i>
   <i type="int" name="EXXOEP">     0</i>
   <i type="int" name="FOURORBIT">     0</i>
   <i name="AEXX">      0.00000000</i>
   <i name="HFALPHA">      0.00000000</i>
   <i name="MCALPHA">      0.00000000</i>
   <i name="ALDAX">      1.00000000</i>
   <i name="AGGAX">      1.00000000</i>
   <i name="ALDAC">      1.00000000</i>
   <i name="AGGAC">      1.00000000</i>
   <i type="int" name="NKREDX">     1</i>
   <i type="int" name="NKREDY">     1</i>
   <i type="int" name="NKREDZ">     1</i>
   <i type="logical" name="SHIFTRED"> F  </i>
   <i type="logical" name="ODDONLY"> F  </i>
   <i type="logical" name="EVENONLY"> F  </i>
   <i type="int" name="LMAXFOCK">     0</i>
   <i type="int" name="NMAXFOCKAE">     0</i>
   <i type="logical" name="LFOCKAEDFT"> F  </i>
   <i name="HFSCREEN">      0.00000000</i>
   <i name="HFSCREENC">      0.00000000</i>
   <i type="int" name="NBANDSGWLOW">     0</i>
  </separator>
  <separator name="vdW DFT" >
   <i type="logical" name="LUSE_VDW"> F  </i>
   <i name="Zab_VDW">     -0.84910000</i>
   <i name="PARAM1">      0.12340000</i>
   <i name="PARAM2">      1.00000000</i>
   <i name="PARAM3">      0.00000000</i>
  </separator>
  <separator name="model GW" >
   <i type="int" name="MODEL_GW">     0</i>
   <i name="MODEL_EPS0">    819.20000000</i>
   <i name="MODEL_ALPHA">      1.00000000</i>
  </separator>
  <separator name="linear response parameters" >
   <i type="logical" name="LEPSILON"> F  </i>
   <i type="logical" name="LRPA"> F  </i>
   <i type="logical" name="LNABLA"> F  </i>
   <i type="logical" name="LVEL"> F  </i>
   <i type="int" name="KINTER">     0</i>
   <i name="CSHIFT">      0.10000000</i>
   <i name="OMEGAMAX">     -1.00000000</i>
   <i name="DEG_THRESHOLD">      0.00200000</i>
  </separator>
  <separator name="orbital magnetization" >
   <i type="logical" name="NUCIND"> F  </i>
   <v name="MAGPOS">      0.00000000      0.00000000      0.00000000</v>
   <i type="logical" name="LNICSALL"> T  </i>
   <i type="logical" name="ORBITALMAG"> F  </i>
   <i type="logical" name="LMAGBLOCH"> F  </i>
   <i type="logical" name="LCHIMAG"> F  </i>
   <i type="logical" name="LGAUGE"> T  </i>
   <i type="int" name="MAGATOM">     0</i>
   <v name="MAGDIPOL">      0.00000000      0.00000000      0.00000000</v>
   <v name="AVECCONST">      0.00000000      0.00000000      0.00000000</v>
  </separator>
  <separator name="response functions" >
   <i type="logical" name="LADDER"> F  </i>
   <i type="logical" name="LFXC"> F  </i>
   <i type="logical" name="LHARTREE"> T  </i>
   <i type="int" name="IBSE">     0</i>
   <v type="int" name="KPOINT">    -1     0     0     0</v>
   <i type="logical" name="LTCTE"> F  </i>
   <i type="logical" name="LTETE"> F  </i>
   <i type="logical" name="LTRIPLET"> F  </i>
   <i type="logical" name="LFXCEPS"> F  </i>
   <i type="logical" name="LFXHEG"> F  </i>
   <i type="int" name="NATURALO">     0</i>
   <i type="logical" name="L2ORDER"> F  </i>
   <i type="logical" name="LUSEW"> F  </i>
   <i name="ENCUTGW">     -2.00000000</i>
   <i name="ENCUTGWSOFT">     -2.00000000</i>
   <i name="ENCUTLF">     -1.00000000</i>
   <i type="int" name="LMAXMP2">    -1</i>
   <i name="SCISSOR">      0.00000000</i>
   <i type="int" name="NOMEGA">     0</i>
   <i type="int" name="NOMEGAR">     0</i>
   <i type="int" name="NBANDSGW">    -1</i>
   <i type="int" name="NBANDSO">    -1</i>
   <i type="int" name="NBANDSV">    -1</i>
   <i type="int" name="NELM">     1</i>
   <i type="int" name="NELMHF">     1</i>
   <i type="int" name="DIM">     3</i>
   <i type="int" name="ANTIRES">     0</i>
   <i name="OMEGAMAX">    -30.00000000</i>
   <i name="OMEGAMIN">    -30.00000000</i>
   <i name="OMEGATL">   -200.00000000</i>
   <i type="int" name="OMEGAGRID">     0</i>
   <i name="CSHIFT">     -0.10000000</i>
   <i type="logical" name="SELFENERGY"> F  </i>
   <i type="logical" name="LSPECTRAL"> F  </i>
   <i type="logical" name="LSPECTRALGW"> F  </i>
   <i type="logical" name="LSINGLES"> F  </i>
   <i type="logical" name="LFERMIGW"> F  </i>
   <i type="logical" name="ODDONLYGW"> F  </i>
   <i type="logical" name="EVENONLYGW"> F  </i>
   <i type="int" name="NKREDLFX">     1</i>
   <i type="int" name="NKREDLFY">     1</i>
   <i type="int" name="NKREDLFZ">     1</i>
   <i type="int" name="MAXMEM">  1800</i>
   <i type="int" name="TELESCOPE">     0</i>
   <i type="int" name="TAUPAR">     1</i>
   <i type="int" name="OMEGAPAR">    -1</i>
   <i name="LAMBDA">      1.00000000</i>
  </separator>
  <separator name="External order field" >
   <i name="OFIELD_KAPPA">      0.00000000</i>
   <v name="OFIELD_K">      0.00000000      0.00000000      0.00000000</v>
   <i name="OFIELD_Q6_NEAR">      0.00000000</i>
   <i name="OFIELD_Q6_FAR">      0.00000000</i>
   <i name="OFIELD_A">      0.00000000</i>
  </separator>
 </parameters>
 <atominfo>
  <atoms>       3 </atoms>
  <types>       2 </types>
  <array name="atoms" >
   <dimension dim="1">ion</dimension>
   <field type="string">element</field>
   <field type="int">atomtype</field>
   <set>
    <rc><c>H </c><c>   1</c></rc>
    <rc><c>H </c><c>   1</c></rc>
    <rc><c>C </c><c>   2</c></rc>
   </set>
  </array>
  <array name="atomtypes" >
   <dimension dim="1">type</dimension>
   <field type="int">atomspertype</field>
   <field type="string">element</field>
   <field>mass</field>
   <field>valence</field>
   <field type="string">pseudopotential</field>
   <set>
    <rc><c>   2</c><c>H </c><c>      1.00000000</c><c>      1.00000000</c><c>  PAW_PBE H 15Jun2001                   </c></rc>
    <rc><c>   1</c><c>C </c><c>     12.01100000</c><c>      4.00000000</c><c>  PAW_PBE C 08Apr2002                   </c></rc>
   </set>
  </array>
 </atominfo>
 <structure name="initialpos" >
  <crystal>
   <varray name="basis" >
    <v>      16.00000000       0.00000000       0.00000000 </v>
    <v>       0.00000000      16.00000000       0.00000000 </v>
    <v>       0.00000000       0.00000000      16.00000000 </v>
   </varray>
   <i name="volume">   4096.00000000 </i>
   <varray name="rec_basis" >
    <v>       0.06250000       0.00000000       0.00000000 </v>
    <v>       0.00000000       0.06250000       0.00000000 </v>
    <v>       0.00000000       0.00000000       0.06250000 </v>
   </varray>
  </crystal>
  <varray name="positions" >
   <v>       0.52115629       0.44589005       0.50000000 </v>
   <v>       0.52115629       0.55410995       0.50000000 </v>
   <v>       0.47631495       0.50000000       0.50000000 </v>
  </varray>
 </structure>
 <calculation>
  <scstep>
   <time name="dav">    0.28    0.29</time>
   <time name="total">    1.35    1.37</time>
   <energy>
    <i name="alphaZ">      0.03722024 </i>
    <i name="ewald">     64.90209267 </i>
    <i name="hartreedc">   -183.34931630 </i>
    <i name="XCdc">     24.26329040 </i>
    <i name="pawpsdc">     99.73956800 </i>
    <i name="pawaedc">    -99.78843352 </i>
    <i name="eentropy">     -0.00000000 </i>
    <i name="bandstr">    -40.11045407 </i>
    <i name="atom">    172.08448920 </i>
    <i name="e_fr_energy">     37.77845661 </i>
    <i name="e_wo_entrp">     37.77845661 </i>
    <i name="e_0_energy">     37.77845661 </i>
   </energy>
  </scstep>
  <scstep>
   <time name="dav">    0.27    0.27</time>
   <time name="total">    0.28    0.28</time>
   <energy>
    <i name="e_fr_energy">      9.24422357 </i>
    <i name="e_wo_entrp">      9.24422357 </i>
    <i name="e_0_energy">      9.24422357 </i>
   </energy>
  </scstep>
  <scstep>
   <time name="dav">    0.24    0.24</time>
   <time name="total">    0.25    0.25</time>
   <energy>
    <i name="e_fr_energy">      1.34327754 </i>
    <i name="e_wo_entrp">      1.34327754 </i>
    <i name="e_0_energy">      1.34327754 </i>
   </energy>
  </scstep>
  <scstep>
   <time name="dav">    0.18    0.18</time>
   <time name="total">    0.19    0.19</time>
   <energy>
    <i name="e_fr_energy">      0.68422341 </i>
    <i name="e_wo_entrp">      0.68422341 </i>
    <i name="e_0_energy">      0.68422341 </i>
   </energy>
  </scstep>
  <scstep>
   <time name="dav">    0.30    0.30</time>
   <time name="total">    0.87    0.88</time>
   <energy>
    <i name="e_fr_energy">      0.66865878 </i>
    <i name="e_wo_entrp">      0.66865878 </i>
    <i name="e_0_energy">      0.66865878 </i>
   </energy>
  </scstep>
  <scstep>
   <time name="dav">    0.26    0.26</time>
   <time name="total">    1.77    1.78</time>
   <energy>
    <i name="e_fr_energy">     -8.89325735 </i>
    <i name="e_wo_entrp">     -8.89325735 </i>
    <i name="e_0_energy">     -8.89325735 </i>
   </energy>
  </scstep>
  <scstep>
   <time name="dav">    0.27    0.27</time>
   <time name="total">    1.78    1.79</time>
   <energy>
    <i name="e_fr_energy">    -10.58039878 </i>
    <i name="e_wo_entrp">    -10.58039878 </i>
    <i name="e_0_energy">    -10.58039878 </i>
   </energy>
  </scstep>
  <scstep>
   <time name="dav">    0.27    0.27</time>
   <time name="total">    1.81    1.82</time>
   <energy>
    <i name="e_fr_energy">    -11.01494683 </i>
    <i name="e_wo_entrp">    -11.01494683 </i>
    <i name="e_0_energy">    -11.01494683 </i>
   </energy>
  </scstep>
  <scstep>
   <time name="dav">    0.18    0.18</time>
   <time name="total">    1.66    1.67</time>
   <energy>
    <i name="e_fr_energy">    -11.35246465 </i>
    <i name="e_wo_entrp">    -11.35246465 </i>
    <i name="e_0_energy">    -11.35246465 </i>
   </energy>
  </scstep>
  <scstep>
   <time name="dav">    0.24    0.24</time>
   <time name="total">    1.74    1.75</time>
   <energy>
    <i name="e_fr_energy">    -11.43122182 </i>
    <i name="e_wo_entrp">    -11.43122182 </i>
    <i name="e_0_energy">    -11.43122182 </i>
   </energy>
  </scstep>
  <scstep>
   <time name="dav">    0.27    0.27</time>
   <time name="total">    1.74    1.75</time>
   <energy>
    <i name="e_fr_energy">    -11.46952809 </i>
    <i name="e_wo_entrp">    -11.46952809 </i>
    <i name="e_0_energy">    -11.46952809 </i>
   </energy>
  </scstep>
  <scstep>
   <time name="dav">    0.24    0.24</time>
   <time name="total">    1.75    1.76</time>
   <energy>
    <i name="e_fr_energy">    -11.53163276 </i>
    <i name="e_wo_entrp">    -11.53163276 </i>
    <i name="e_0_energy">    -11.53163276 </i>
   </energy>
  </scstep>
  <scstep>
   <time name="dav">    0.24    0.24</time>
   <time name="total">    1.74    1.75</time>
   <energy>
    <i name="e_fr_energy">    -11.55455030 </i>
    <i name="e_wo_entrp">    -11.55455030 </i>
    <i name="e_0_energy">    -11.55455030 </i>
   </energy>
  </scstep>
  <scstep>
   <time name="dav">    0.18    0.18</time>
   <time name="total">    1.70    1.72</time>
   <energy>
    <i name="e_fr_energy">    -11.57376821 </i>
    <i name="e_wo_entrp">    -11.57376821 </i>
    <i name="e_0_energy">    -11.57376821 </i>
   </energy>
  </scstep>
  <scstep>
   <time name="dav">    0.24    0.24</time>
   <time name="total">    1.73    1.74</time>
   <energy>
    <i name="e_fr_energy">    -11.58726288 </i>
    <i name="e_wo_entrp">    -11.58726288 </i>
    <i name="e_0_energy">    -11.58726288 </i>
   </energy>
  </scstep>
  <scstep>
   <time name="dav">    0.30    0.30</time>
   <time name="total">    1.83    1.84</time>
   <energy>
    <i name="e_fr_energy">    -11.58757746 </i>
    <i name="e_wo_entrp">    -11.58757746 </i>
    <i name="e_0_energy">    -11.58757746 </i>
   </energy>
  </scstep>
  <scstep>
   <time name="dav">    0.18    0.18</time>
   <time name="total">    1.66    1.68</time>
   <energy>
    <i name="e_fr_energy">    -11.58887587 </i>
    <i name="e_wo_entrp">    -11.58887587 </i>
    <i name="e_0_energy">    -11.58887587 </i>
   </energy>
  </scstep>
  <scstep>
   <time name="dav">    0.29    0.29</time>
   <time name="total">    1.86    1.87</time>
   <energy>
    <i name="e_fr_energy">    -11.59035760 </i>
    <i name="e_wo_entrp">    -11.59035760 </i>
    <i name="e_0_energy">    -11.59035760 </i>
   </energy>
  </scstep>
  <scstep>
   <time name="dav">    0.18    0.18</time>
   <time name="total">    1.79    1.81</time>
   <energy>
    <i name="e_fr_energy">    -11.59133971 </i>
    <i name="e_wo_entrp">    -11.59133971 </i>
    <i name="e_0_energy">    -11.59133971 </i>
   </energy>
  </scstep>
  <scstep>
   <time name="dav">    0.18    0.18</time>
   <time name="total">    1.86    1.87</time>
   <energy>
    <i name="e_fr_energy">    -11.59169148 </i>
    <i name="e_wo_entrp">    -11.59169148 </i>
    <i name="e_0_energy">    -11.59169148 </i>
   </energy>
  </scstep>
  <scstep>
   <time name="dav">    0.27    0.27</time>
   <time name="total">    1.81    1.83</time>
   <energy>
    <i name="e_fr_energy">    -11.59179538 </i>
    <i name="e_wo_entrp">    -11.59179538 </i>
    <i name="e_0_energy">    -11.59179538 </i>
   </energy>
  </scstep>
  <scstep>
   <time name="dav">    0.24    0.24</time>
   <time name="total">    1.71    1.73</time>
   <energy>
    <i name="e_fr_energy">    -11.59181406 </i>
    <i name="e_wo_entrp">    -11.59181406 </i>
    <i name="e_0_energy">    -11.59181406 </i>
   </energy>
  </scstep>
  <scstep>
   <time name="dav">    0.26    0.27</time>
   <time name="total">    1.79    1.82</time>
   <energy>
    <i name="e_fr_energy">    -11.59185954 </i>
    <i name="e_wo_entrp">    -11.59185954 </i>
    <i name="e_0_energy">    -11.59185954 </i>
   </energy>
  </scstep>
  <scstep>
   <time name="dav">    0.30    0.31</time>
   <time name="total">    1.77    1.79</time>
   <energy>
    <i name="e_fr_energy">    -11.59188802 </i>
    <i name="e_wo_entrp">    -11.59188802 </i>
    <i name="e_0_energy">    -11.59188802 </i>
   </energy>
  </scstep>
  <scstep>
   <time name="dav">    0.30    0.30</time>
   <time name="total">    1.79    1.80</time>
   <energy>
    <i name="e_fr_energy">    -11.59189807 </i>
    <i name="e_wo_entrp">    -11.59189807 </i>
    <i name="e_0_energy">    -11.59189807 </i>
   </energy>
  </scstep>
  <scstep>
   <time name="dav">    0.29    0.30</time>
   <time name="total">    1.83    1.84</time>
   <energy>
    <i name="e_fr_energy">    -11.59190060 </i>
    <i name="e_wo_entrp">    -11.59190060 </i>
    <i name="e_0_energy">    -11.59190060 </i>
   </energy>
  </scstep>
  <scstep>
   <time name="dav">    0.30    0.30</time>
   <time name="total">    1.79    1.81</time>
   <energy>
    <i name="e_fr_energy">    -11.59190174 </i>
    <i name="e_wo_entrp">    -11.59190174 </i>
    <i name="e_0_energy">    -11.59190174 </i>
   </energy>
  </scstep>
  <scstep>
   <time name="dav">    0.20    0.20</time>
   <time name="total">    1.68    1.71</time>
   <energy>
    <i name="e_fr_energy">    -11.59190234 </i>
    <i name="e_wo_entrp">    -11.59190234 </i>
    <i name="e_0_energy">    -11.59190234 </i>
   </energy>
  </scstep>
  <scstep>
   <time name="dav">    0.18    0.31</time>
   <time name="total">    1.23    1.93</time>
   <energy>
    <i name="e_fr_energy">    -11.59190300 </i>
    <i name="e_wo_entrp">    -11.59190300 </i>
    <i name="e_0_energy">    -11.59190300 </i>
   </energy>
  </scstep>
  <scstep>
   <time name="dav">    0.23    0.23</time>
   <time name="total">    1.67    1.75</time>
   <energy>
    <i name="e_fr_energy">    -11.59190366 </i>
    <i name="e_wo_entrp">    -11.59190366 </i>
    <i name="e_0_energy">    -11.59190366 </i>
   </energy>
  </scstep>
  <scstep>
   <time name="dav">    0.21    0.21</time>
   <time name="total">    1.72    1.72</time>
   <energy>
    <i name="e_fr_energy">    -11.59190395 </i>
    <i name="e_wo_entrp">    -11.59190395 </i>
    <i name="e_0_energy">    -11.59190395 </i>
   </energy>
  </scstep>
  <scstep>
   <time name="dav">    0.26    0.26</time>
   <time name="total">    1.82    1.83</time>
   <energy>
    <i name="e_fr_energy">    -11.59190405 </i>
    <i name="e_wo_entrp">    -11.59190405 </i>
    <i name="e_0_energy">    -11.59190405 </i>
   </energy>
  </scstep>
  <scstep>
   <time name="dav">    0.23    0.23</time>
   <time name="total">    1.75    1.75</time>
   <energy>
    <i name="e_fr_energy">    -11.59190411 </i>
    <i name="e_wo_entrp">    -11.59190411 </i>
    <i name="e_0_energy">    -11.59190411 </i>
   </energy>
  </scstep>
  <scstep>
   <time name="dav">    0.29    0.29</time>
   <time name="total">    1.84    1.85</time>
   <energy>
    <i name="e_fr_energy">    -11.59190413 </i>
    <i name="e_wo_entrp">    -11.59190413 </i>
    <i name="e_0_energy">    -11.59190413 </i>
   </energy>
  </scstep>
  <scstep>
   <time name="dav">    0.20    0.24</time>
   <time name="total">    1.36    1.79</time>
   <energy>
    <i name="e_fr_energy">    -11.59190414 </i>
    <i name="e_wo_entrp">    -11.59190414 </i>
    <i name="e_0_energy">    -11.59190414 </i>
   </energy>
  </scstep>
  <scstep>
   <time name="dav">    0.19    0.32</time>
   <time name="total">    0.93    1.40</time>
   <energy>
    <i name="alphaZ">      0.03722024 </i>
    <i name="ewald">     64.90209267 </i>
    <i name="hartreedc">   -201.76083174 </i>
    <i name="XCdc">     18.17156389 </i>
    <i name="pawpsdc">    254.81452519 </i>
    <i name="pawaedc">   -255.47883666 </i>
    <i name="eentropy">     -0.00000000 </i>
    <i name="bandstr">    -64.36212694 </i>
    <i name="atom">    172.08448920 </i>
    <i name="e_fr_energy">    -11.59190415 </i>
    <i name="e_wo_entrp">    -11.59190415 </i>
    <i name="e_0_energy">    -11.59190415 </i>
   </energy>
  </scstep>
  <structure>
   <crystal>
    <varray name="basis" >
     <v>      16.00000000       0.00000000       0.00000000 </v>
     <v>       0.00000000      16.00000000       0.00000000 </v>
     <v>       0.00000000       0.00000000      16.00000000 </v>
    </varray>
    <i name="volume">   4096.00000000 </i>
    <varray name="rec_basis" >
     <v>       0.06250000       0.00000000       0.00000000 </v>
     <v>       0.00000000       0.06250000       0.00000000 </v>
     <v>       0.00000000       0.00000000       0.06250000 </v>
    </varray>
   </crystal>
   <varray name="positions" >
    <v>       0.52115629       0.44589005       0.50000000 </v>
    <v>       0.52115629       0.55410995       0.50000000 </v>
    <v>       0.47631495       0.50000000       0.50000000 </v>
   </varray>
  </structure>
  <varray name="forces" >
   <v>      -1.65512563      -0.50700782       0.00000000 </v>
   <v>      -1.65512563       0.50700771       0.00000000 </v>
   <v>       3.31025125       0.00000011       0.00000000 </v>
  </varray>
  <varray name="stress" >
   <v>      -1.03086221      -0.00000004       0.00000000 </v>
   <v>      -0.00000004       0.23520602       0.00000000 </v>
   <v>       0.00000000       0.00000000      -0.12084142 </v>
  </varray>
  <energy>
   <i name="e_fr_energy">    -11.59190415 </i>
   <i name="e_wo_entrp">    -11.59190415 </i>
   <i name="e_0_energy">     -0.00000000 </i>
  </energy>
  <time name="totalsc">   57.93   60.66</time>
 </calculation>
 <calculation>
  <scstep>
   <time name="dav">    0.12    0.20</time>
   <time name="total">    1.46    1.83</time>
   <energy>
    <i name="alphaZ">      0.03722024 </i>
    <i name="ewald">     76.22148211 </i>
    <i name="hartreedc">   -207.63485668 </i>
    <i name="XCdc">     21.25949673 </i>
    <i name="pawpsdc">    254.81453135 </i>
    <i name="pawaedc">   -255.47884281 </i>
    <i name="eentropy">     -0.00000000 </i>
    <i name="bandstr">    -69.47518711 </i>
    <i name="atom">    172.08448920 </i>
    <i name="e_fr_energy">     -8.17166698 </i>
    <i name="e_wo_entrp">     -8.17166698 </i>
    <i name="e_0_energy">     -8.17166698 </i>
   </energy>
  </scstep>
  <scstep>
   <time name="dav">    0.18    0.18</time>
   <time name="total">    1.66    1.67</time>
   <energy>
    <i name="e_fr_energy">    -11.52874450 </i>
    <i name="e_wo_entrp">    -11.52874450 </i>
    <i name="e_0_energy">    -11.52874450 </i>
   </energy>
  </scstep>
  <scstep>
   <time name="dav">    0.27    0.27</time>
   <time name="total">    1.76    1.77</time>
   <energy>
    <i name="e_fr_energy">    -11.72673960 </i>
    <i name="e_wo_entrp">    -11.72673960 </i>
    <i name="e_0_energy">    -11.72673960 </i>
   </energy>
  </scstep>
  <scstep>
   <time name="dav">    0.27    0.27</time>
   <time name="total">    1.77    1.78</time>
   <energy>
    <i name="e_fr_energy">    -11.74583800 </i>
    <i name="e_wo_entrp">    -11.74583800 </i>
    <i name="e_0_energy">    -11.74583800 </i>
   </energy>
  </scstep>
  <scstep>
   <time name="dav">    0.17    0.18</time>
   <time name="total">    1.62    1.63</time>
   <energy>
    <i name="e_fr_energy">    -11.77103193 </i>
    <i name="e_wo_entrp">    -11.77103193 </i>
    <i name="e_0_energy">    -11.77103193 </i>
   </energy>
  </scstep>
  <scstep>
   <time name="dav">    0.23    0.23</time>
   <time name="total">    1.71    1.72</time>
   <energy>
    <i name="e_fr_energy">    -11.78717722 </i>
    <i name="e_wo_entrp">    -11.78717722 </i>
    <i name="e_0_energy">    -11.78717722 </i>
   </energy>
  </scstep>
  <scstep>
   <time name="dav">    0.17    0.18</time>
   <time name="total">    1.64    1.64</time>
   <energy>
    <i name="e_fr_energy">    -11.79322238 </i>
    <i name="e_wo_entrp">    -11.79322238 </i>
    <i name="e_0_energy">    -11.79322238 </i>
   </energy>
  </scstep>
  <scstep>
   <time name="dav">    0.24    0.24</time>
   <time name="total">    1.71    1.72</time>
   <energy>
    <i name="e_fr_energy">    -11.79590796 </i>
    <i name="e_wo_entrp">    -11.79590796 </i>
    <i name="e_0_energy">    -11.79590796 </i>
   </energy>
  </scstep>
  <scstep>
   <time name="dav">    0.17    0.17</time>
   <time name="total">    1.64    1.67</time>
   <energy>
    <i name="e_fr_energy">    -11.79972525 </i>
    <i name="e_wo_entrp">    -11.79972525 </i>
    <i name="e_0_energy">    -11.79972525 </i>
   </energy>
  </scstep>
  <scstep>
   <time name="dav">    0.23    0.23</time>
   <time name="total">    1.69    1.72</time>
   <energy>
    <i name="e_fr_energy">    -11.80116822 </i>
    <i name="e_wo_entrp">    -11.80116822 </i>
    <i name="e_0_energy">    -11.80116822 </i>
   </energy>
  </scstep>
  <scstep>
   <time name="dav">    0.23    0.23</time>
   <time name="total">    1.72    1.74</time>
   <energy>
    <i name="e_fr_energy">    -11.80161573 </i>
    <i name="e_wo_entrp">    -11.80161573 </i>
    <i name="e_0_energy">    -11.80161573 </i>
   </energy>
  </scstep>
  <scstep>
   <time name="dav">    0.24    0.24</time>
   <time name="total">    1.79    1.80</time>
   <energy>
    <i name="e_fr_energy">    -11.80185821 </i>
    <i name="e_wo_entrp">    -11.80185821 </i>
    <i name="e_0_energy">    -11.80185821 </i>
   </energy>
  </scstep>
  <scstep>
   <time name="dav">    0.21    0.21</time>
   <time name="total">    1.70    1.71</time>
   <energy>
    <i name="e_fr_energy">    -11.80191130 </i>
    <i name="e_wo_entrp">    -11.80191130 </i>
    <i name="e_0_energy">    -11.80191130 </i>
   </energy>
  </scstep>
  <scstep>
   <time name="dav">    0.22    0.22</time>
   <time name="total">    1.73    1.74</time>
   <energy>
    <i name="e_fr_energy">    -11.80199669 </i>
    <i name="e_wo_entrp">    -11.80199669 </i>
    <i name="e_0_energy">    -11.80199669 </i>
   </energy>
  </scstep>
  <scstep>
   <time name="dav">    0.21    0.22</time>
   <time name="total">    1.74    1.77</time>
   <energy>
    <i name="e_fr_energy">    -11.80205757 </i>
    <i name="e_wo_entrp">    -11.80205757 </i>
    <i name="e_0_energy">    -11.80205757 </i>
   </energy>
  </scstep>
  <scstep>
   <time name="dav">    0.24    0.24</time>
   <time name="total">    1.81    1.83</time>
   <energy>
    <i name="e_fr_energy">    -11.80209045 </i>
    <i name="e_wo_entrp">    -11.80209045 </i>
    <i name="e_0_energy">    -11.80209045 </i>
   </energy>
  </scstep>
  <scstep>
   <time name="dav">    0.23    0.24</time>
   <time name="total">    1.74    1.76</time>
   <energy>
    <i name="e_fr_energy">    -11.80210167 </i>
    <i name="e_wo_entrp">    -11.80210167 </i>
    <i name="e_0_energy">    -11.80210167 </i>
   </energy>
  </scstep>
  <scstep>
   <time name="dav">    0.33    0.33</time>
   <time name="total">    1.80    1.83</time>
   <energy>
    <i name="e_fr_energy">    -11.80210670 </i>
    <i name="e_wo_entrp">    -11.80210670 </i>
    <i name="e_0_energy">    -11.80210670 </i>
   </energy>
  </scstep>
  <scstep>
   <time name="dav">    0.17    0.18</time>
   <time name="total">    1.66    1.69</time>
   <energy>
    <i name="e_fr_energy">    -11.80211056 </i>
    <i name="e_wo_entrp">    -11.80211056 </i>
    <i name="e_0_energy">    -11.80211056 </i>
   </energy>
  </scstep>
  <scstep>
   <time name="dav">    0.27    0.27</time>
   <time name="total">    1.74    1.76</time>
   <energy>
    <i name="e_fr_energy">    -11.80211192 </i>
    <i name="e_wo_entrp">    -11.80211192 </i>
    <i name="e_0_energy">    -11.80211192 </i>
   </energy>
  </scstep>
  <scstep>
   <time name="dav">    0.27    0.27</time>
   <time name="total">    1.77    1.78</time>
   <energy>
    <i name="e_fr_energy">    -11.80211311 </i>
    <i name="e_wo_entrp">    -11.80211311 </i>
    <i name="e_0_energy">    -11.80211311 </i>
   </energy>
  </scstep>
  <scstep>
   <time name="dav">    0.26    0.26</time>
   <time name="total">    1.77    1.79</time>
   <energy>
    <i name="e_fr_energy">    -11.80211374 </i>
    <i name="e_wo_entrp">    -11.80211374 </i>
    <i name="e_0_energy">    -11.80211374 </i>
   </energy>
  </scstep>
  <scstep>
   <time name="dav">    0.40    0.40</time>
   <time name="total">    1.90    1.91</time>
   <energy>
    <i name="e_fr_energy">    -11.80211392 </i>
    <i name="e_wo_entrp">    -11.80211392 </i>
    <i name="e_0_energy">    -11.80211392 </i>
   </energy>
  </scstep>
  <scstep>
   <time name="dav">    0.24    0.24</time>
   <time name="total">    1.72    1.75</time>
   <energy>
    <i name="e_fr_energy">    -11.80211403 </i>
    <i name="e_wo_entrp">    -11.80211403 </i>
    <i name="e_0_energy">    -11.80211403 </i>
   </energy>
  </scstep>
  <scstep>
   <time name="dav">    0.21    0.21</time>
   <time name="total">    1.73    1.74</time>
   <energy>
    <i name="e_fr_energy">    -11.80211408 </i>
    <i name="e_wo_entrp">    -11.80211408 </i>
    <i name="e_0_energy">    -11.80211408 </i>
   </energy>
  </scstep>
  <scstep>
   <time name="dav">    0.24    0.24</time>
   <time name="total">    1.78    1.79</time>
   <energy>
    <i name="e_fr_energy">    -11.80211410 </i>
    <i name="e_wo_entrp">    -11.80211410 </i>
    <i name="e_0_energy">    -11.80211410 </i>
   </energy>
  </scstep>
  <scstep>
   <time name="dav">    0.21    0.21</time>
   <time name="total">    1.70    1.72</time>
   <energy>
    <i name="e_fr_energy">    -11.80211412 </i>
    <i name="e_wo_entrp">    -11.80211412 </i>
    <i name="e_0_energy">    -11.80211412 </i>
   </energy>
  </scstep>
  <scstep>
   <time name="dav">    0.28    0.28</time>
   <time name="total">    1.38    1.39</time>
   <energy>
    <i name="alphaZ">      0.03722024 </i>
    <i name="ewald">     76.22148211 </i>
    <i name="hartreedc">   -210.85676603 </i>
    <i name="XCdc">     18.77886991 </i>
    <i name="pawpsdc">    329.66520271 </i>
    <i name="pawaedc">   -330.38609770 </i>
    <i name="eentropy">     -0.00000000 </i>
    <i name="bandstr">    -67.34651456 </i>
    <i name="atom">    172.08448920 </i>
    <i name="e_fr_energy">    -11.80211413 </i>
    <i name="e_wo_entrp">    -11.80211413 </i>
    <i name="e_0_energy">    -11.80211413 </i>
   </energy>
  </scstep>
  <structure>
   <crystal>
    <varray name="basis" >
     <v>      16.00000000       0.00000000       0.00000000 </v>
     <v>       0.00000000      16.00000000       0.00000000 </v>
     <v>       0.00000000       0.00000000      16.00000000 </v>
    </varray>
    <i name="volume">   4096.00000000 </i>
    <varray name="rec_basis" >
     <v>       0.06250000       0.00000000       0.00000000 </v>
     <v>       0.00000000       0.06250000       0.00000000 </v>
     <v>       0.00000000       0.00000000       0.06250000 </v>
    </varray>
   </crystal>
   <varray name="positions" >
    <v>       0.51616582       0.44436134       0.50000000 </v>
    <v>       0.51616582       0.55563866       0.50000000 </v>
    <v>       0.48629591       0.50000000       0.50000000 </v>
   </varray>
  </structure>
  <varray name="forces" >
   <v>       1.06650470      -3.26732451       0.00000000 </v>
   <v>       1.06650508       3.26732517       0.00000000 </v>
   <v>      -2.13300978      -0.00000066       0.00000000 </v>
  </varray>
  <varray name="stress" >
   <v>       0.27271833       0.00000012       0.00000000 </v>
   <v>       0.00000012       2.13822296       0.00000000 </v>
   <v>       0.00000000       0.00000000      -0.12747674 </v>
  </varray>
  <energy>
   <i name="e_fr_energy">    -11.80211413 </i>
   <i name="e_wo_entrp">    -11.80211413 </i>
   <i name="e_0_energy">     -0.00000000 </i>
  </energy>
  <time name="totalsc">   50.40   51.23</time>
 </calculation>
 <calculation>
  <scstep>
   <time name="dav">    0.18    0.18</time>
   <time name="total">    1.55    1.75</time>
   <energy>
    <i name="alphaZ">      0.03722024 </i>
    <i name="ewald">     72.74607897 </i>
    <i name="hartreedc">   -209.11746942 </i>
    <i name="XCdc">     18.65606213 </i>
    <i name="pawpsdc">    329.66519416 </i>
    <i name="pawaedc">   -330.38608915 </i>
    <i name="eentropy">     -0.00000000 </i>
    <i name="bandstr">    -65.51397912 </i>
    <i name="atom">    172.08448920 </i>
    <i name="e_fr_energy">    -11.82849300 </i>
    <i name="e_wo_entrp">    -11.82849300 </i>
    <i name="e_0_energy">    -11.82849300 </i>
   </energy>
  </scstep>
  <scstep>
   <time name="dav">    0.21    0.21</time>
   <time name="total">    1.71    1.72</time>
   <energy>
    <i name="e_fr_energy">    -11.83658314 </i>
    <i name="e_wo_entrp">    -11.83658314 </i>
    <i name="e_0_energy">    -11.83658314 </i>
   </energy>
  </scstep>
  <scstep>
   <time name="dav">    0.17    0.27</time>
   <time name="total">    1.30    1.97</time>
   <energy>
    <i name="e_fr_energy">    -11.85076952 </i>
    <i name="e_wo_entrp">    -11.85076952 </i>
    <i name="e_0_energy">    -11.85076952 </i>
   </energy>
  </scstep>
  <scstep>
   <time name="dav">    0.20    0.27</time>
   <time name="total">    1.39    1.81</time>
   <energy>
    <i name="e_fr_energy">    -11.85474476 </i>
    <i name="e_wo_entrp">    -11.85474476 </i>
    <i name="e_0_energy">    -11.85474476 </i>
   </energy>
  </scstep>
  <scstep>
   <time name="dav">    0.23    0.24</time>
   <time name="total">    1.74    1.77</time>
   <energy>
    <i name="e_fr_energy">    -11.85887590 </i>
    <i name="e_wo_entrp">    -11.85887590 </i>
    <i name="e_0_energy">    -11.85887590 </i>
   </energy>
  </scstep>
  <scstep>
   <time name="dav">    0.18    0.18</time>
   <time name="total">    1.67    1.69</time>
   <energy>
    <i name="e_fr_energy">    -11.86050558 </i>
    <i name="e_wo_entrp">    -11.86050558 </i>
    <i name="e_0_energy">    -11.86050558 </i>
   </energy>
  </scstep>
  <scstep>
   <time name="dav">    0.18    0.18</time>
   <time name="total">    1.70    1.71</time>
   <energy>
    <i name="e_fr_energy">    -11.86138901 </i>
    <i name="e_wo_entrp">    -11.86138901 </i>
    <i name="e_0_energy">    -11.86138901 </i>
   </energy>
  </scstep>
  <scstep>
   <time name="dav">    0.18    0.18</time>
   <time name="total">    1.67    1.68</time>
   <energy>
    <i name="e_fr_energy">    -11.86202590 </i>
    <i name="e_wo_entrp">    -11.86202590 </i>
    <i name="e_0_energy">    -11.86202590 </i>
   </energy>
  </scstep>
  <scstep>
   <time name="dav">    0.24    0.24</time>
   <time name="total">    1.72    1.73</time>
   <energy>
    <i name="e_fr_energy">    -11.86243984 </i>
    <i name="e_wo_entrp">    -11.86243984 </i>
    <i name="e_0_energy">    -11.86243984 </i>
   </energy>
  </scstep>
  <scstep>
   <time name="dav">    0.24    0.24</time>
   <time name="total">    1.77    1.78</time>
   <energy>
    <i name="e_fr_energy">    -11.86270643 </i>
    <i name="e_wo_entrp">    -11.86270643 </i>
    <i name="e_0_energy">    -11.86270643 </i>
   </energy>
  </scstep>
  <scstep>
   <time name="dav">    0.24    0.24</time>
   <time name="total">    1.74    1.75</time>
   <energy>
    <i name="e_fr_energy">    -11.86274931 </i>
    <i name="e_wo_entrp">    -11.86274931 </i>
    <i name="e_0_energy">    -11.86274931 </i>
   </energy>
  </scstep>
  <scstep>
   <time name="dav">    0.21    0.25</time>
   <time name="total">    1.54    1.86</time>
   <energy>
    <i name="e_fr_energy">    -11.86274836 </i>
    <i name="e_wo_entrp">    -11.86274836 </i>
    <i name="e_0_energy">    -11.86274836 </i>
   </energy>
  </scstep>
  <scstep>
   <time name="dav">    0.12    0.22</time>
   <time name="total">    1.13    1.79</time>
   <energy>
    <i name="e_fr_energy">    -11.86276664 </i>
    <i name="e_wo_entrp">    -11.86276664 </i>
    <i name="e_0_energy">    -11.86276664 </i>
   </energy>
  </scstep>
  <scstep>
   <time name="dav">    0.13    0.21</time>
   <time name="total">    1.15    1.80</time>
   <energy>
    <i name="e_fr_energy">    -11.86277810 </i>
    <i name="e_wo_entrp">    -11.86277810 </i>
    <i name="e_0_energy">    -11.86277810 </i>
   </energy>
  </scstep>
  <scstep>
   <time name="dav">    0.13    0.22</time>
   <time name="total">    1.14    1.80</time>
   <energy>
    <i name="e_fr_energy">    -11.86278663 </i>
    <i name="e_wo_entrp">    -11.86278663 </i>
    <i name="e_0_energy">    -11.86278663 </i>
   </energy>
  </scstep>
  <scstep>
   <time name="dav">    0.22    0.24</time>
   <time name="total">    1.30    1.83</time>
   <energy>
    <i name="e_fr_energy">    -11.86278961 </i>
    <i name="e_wo_entrp">    -11.86278961 </i>
    <i name="e_0_energy">    -11.86278961 </i>
   </energy>
  </scstep>
  <scstep>
   <time name="dav">    0.18    0.28</time>
   <time name="total">    1.41    2.08</time>
   <energy>
    <i name="e_fr_energy">    -11.86279038 </i>
    <i name="e_wo_entrp">    -11.86279038 </i>
    <i name="e_0_energy">    -11.86279038 </i>
   </energy>
  </scstep>
  <scstep>
   <time name="dav">    0.28    0.28</time>
   <time name="total">    1.61    1.80</time>
   <energy>
    <i name="e_fr_energy">    -11.86279131 </i>
    <i name="e_wo_entrp">    -11.86279131 </i>
    <i name="e_0_energy">    -11.86279131 </i>
   </energy>
  </scstep>
  <scstep>
   <time name="dav">    0.26    0.26</time>
   <time name="total">    2.51    2.52</time>
   <energy>
    <i name="e_fr_energy">    -11.86279181 </i>
    <i name="e_wo_entrp">    -11.86279181 </i>
    <i name="e_0_energy">    -11.86279181 </i>
   </energy>
  </scstep>
  <scstep>
   <time name="dav">    0.27    0.27</time>
   <time name="total">    1.85    1.86</time>
   <energy>
    <i name="e_fr_energy">    -11.86279213 </i>
    <i name="e_wo_entrp">    -11.86279213 </i>
    <i name="e_0_energy">    -11.86279213 </i>
   </energy>
  </scstep>
  <scstep>
   <time name="dav">    0.26    0.27</time>
   <time name="total">    1.95    1.98</time>
   <energy>
    <i name="e_fr_energy">    -11.86279233 </i>
    <i name="e_wo_entrp">    -11.86279233 </i>
    <i name="e_0_energy">    -11.86279233 </i>
   </energy>
  </scstep>
  <scstep>
   <time name="dav">    0.18    0.18</time>
   <time name="total">    1.67    1.68</time>
   <energy>
    <i name="e_fr_energy">    -11.86279240 </i>
    <i name="e_wo_entrp">    -11.86279240 </i>
    <i name="e_0_energy">    -11.86279240 </i>
   </energy>
  </scstep>
  <scstep>
   <time name="dav">    0.30    0.30</time>
   <time name="total">    1.83    1.88</time>
   <energy>
    <i name="e_fr_energy">    -11.86279243 </i>
    <i name="e_wo_entrp">    -11.86279243 </i>
    <i name="e_0_energy">    -11.86279243 </i>
   </energy>
  </scstep>
  <scstep>
   <time name="dav">    0.18    0.18</time>
   <time name="total">    1.66    1.67</time>
   <energy>
    <i name="e_fr_energy">    -11.86279244 </i>
    <i name="e_wo_entrp">    -11.86279244 </i>
    <i name="e_0_energy">    -11.86279244 </i>
   </energy>
  </scstep>
  <scstep>
   <time name="dav">    0.24    0.24</time>
   <time name="total">    1.21    1.22</time>
   <energy>
    <i name="alphaZ">      0.03722024 </i>
    <i name="ewald">     72.74607897 </i>
    <i name="hartreedc">   -208.20701482 </i>
    <i name="XCdc">     18.60304679 </i>
    <i name="pawpsdc">    304.16496998 </i>
    <i name="pawaedc">   -304.86708343 </i>
    <i name="eentropy">     -0.00000000 </i>
    <i name="bandstr">    -66.42449937 </i>
    <i name="atom">    172.08448920 </i>
    <i name="e_fr_energy">    -11.86279245 </i>
    <i name="e_wo_entrp">    -11.86279245 </i>
    <i name="e_0_energy">    -11.86279245 </i>
   </energy>
  </scstep>
  <structure>
   <crystal>
    <varray name="basis" >
     <v>      16.00000000       0.00000000       0.00000000 </v>
     <v>       0.00000000      16.00000000       0.00000000 </v>
     <v>       0.00000000       0.00000000      16.00000000 </v>
    </varray>
    <i name="volume">   4096.00000000 </i>
    <varray name="rec_basis" >
     <v>       0.06250000       0.00000000       0.00000000 </v>
     <v>       0.00000000       0.06250000       0.00000000 </v>
     <v>       0.00000000       0.00000000       0.06250000 </v>
    </varray>
   </crystal>
   <varray name="positions" >
    <v>       0.51779506       0.44486042       0.50000000 </v>
    <v>       0.51779506       0.55513958       0.50000000 </v>
    <v>       0.48303741       0.50000000       0.50000000 </v>
   </varray>
  </structure>
  <varray name="forces" >
   <v>       0.23679856      -2.15855859       0.00000000 </v>
   <v>       0.23679879       2.15855893       0.00000000 </v>
   <v>      -0.47359735      -0.00000034       0.00000000 </v>
  </varray>
  <varray name="stress" >
   <v>      -0.01802001       0.00000008       0.00000000 </v>
   <v>       0.00000007       1.36167265       0.00000000 </v>
   <v>       0.00000000       0.00000000      -0.12572285 </v>
  </varray>
  <energy>
   <i name="e_fr_energy">    -11.86279245 </i>
   <i name="e_wo_entrp">    -11.86279245 </i>
   <i name="e_0_energy">     -0.00000000 </i>
  </energy>
  <time name="totalsc">   42.48   47.72</time>
 </calculation>
 <calculation>
  <scstep>
   <time name="dav">    0.27    0.28</time>
   <time name="total">    1.89    1.90</time>
   <energy>
    <i name="alphaZ">      0.03722024 </i>
    <i name="ewald">     66.73145602 </i>
    <i name="hartreedc">   -205.11966873 </i>
    <i name="XCdc">     18.89537626 </i>
    <i name="pawpsdc">    304.16496156 </i>
    <i name="pawaedc">   -304.86707502 </i>
    <i name="eentropy">     -0.00000000 </i>
    <i name="bandstr">    -63.17771667 </i>
    <i name="atom">    172.08448920 </i>
    <i name="e_fr_energy">    -11.25095714 </i>
    <i name="e_wo_entrp">    -11.25095714 </i>
    <i name="e_0_energy">    -11.25095714 </i>
   </energy>
  </scstep>
  <scstep>
   <time name="dav">    0.21    0.21</time>
   <time name="total">    1.77    1.82</time>
   <energy>
    <i name="e_fr_energy">    -12.00269662 </i>
    <i name="e_wo_entrp">    -12.00269662 </i>
    <i name="e_0_energy">    -12.00269662 </i>
   </energy>
  </scstep>
  <scstep>
   <time name="dav">    0.24    0.24</time>
   <time name="total">    1.78    1.80</time>
   <energy>
    <i name="e_fr_energy">    -12.05808339 </i>
    <i name="e_wo_entrp">    -12.05808339 </i>
    <i name="e_0_energy">    -12.05808339 </i>
   </energy>
  </scstep>
  <scstep>
   <time name="dav">    0.12    0.22</time>
   <time name="total">    1.15    1.83</time>
   <energy>
    <i name="e_fr_energy">    -12.06766008 </i>
    <i name="e_wo_entrp">    -12.06766008 </i>
    <i name="e_0_energy">    -12.06766008 </i>
   </energy>
  </scstep>
  <scstep>
   <time name="dav">    0.23    0.23</time>
   <time name="total">    1.32    1.73</time>
   <energy>
    <i name="e_fr_energy">    -12.07899293 </i>
    <i name="e_wo_entrp">    -12.07899293 </i>
    <i name="e_0_energy">    -12.07899293 </i>
   </energy>
  </scstep>
  <scstep>
   <time name="dav">    0.18    0.18</time>
   <time name="total">    1.68    1.70</time>
   <energy>
    <i name="e_fr_energy">    -12.08354053 </i>
    <i name="e_wo_entrp">    -12.08354053 </i>
    <i name="e_0_energy">    -12.08354053 </i>
   </energy>
  </scstep>
  <scstep>
   <time name="dav">    0.17    0.18</time>
   <time name="total">    1.64    1.66</time>
   <energy>
    <i name="e_fr_energy">    -12.08659521 </i>
    <i name="e_wo_entrp">    -12.08659521 </i>
    <i name="e_0_energy">    -12.08659521 </i>
   </energy>
  </scstep>
  <scstep>
   <time name="dav">    0.30    0.30</time>
   <time name="total">    1.75    1.78</time>
   <energy>
    <i name="e_fr_energy">    -12.08865993 </i>
    <i name="e_wo_entrp">    -12.08865993 </i>
    <i name="e_0_energy">    -12.08865993 </i>
   </energy>
  </scstep>
  <scstep>
   <time name="dav">    0.24    0.24</time>
   <time name="total">    1.73    1.75</time>
   <energy>
    <i name="e_fr_energy">    -12.08956844 </i>
    <i name="e_wo_entrp">    -12.08956844 </i>
    <i name="e_0_energy">    -12.08956844 </i>
   </energy>
  </scstep>
  <scstep>
   <time name="dav">    0.18    0.18</time>
   <time name="total">    1.66    1.71</time>
   <energy>
    <i name="e_fr_energy">    -12.09024600 </i>
    <i name="e_wo_entrp">    -12.09024600 </i>
    <i name="e_0_energy">    -12.09024600 </i>
   </energy>
  </scstep>
  <scstep>
   <time name="dav">    0.21    0.24</time>
   <time name="total">    1.56    1.95</time>
   <energy>
    <i name="e_fr_energy">    -12.09068388 </i>
    <i name="e_wo_entrp">    -12.09068388 </i>
    <i name="e_0_energy">    -12.09068388 </i>
   </energy>
  </scstep>
  <scstep>
   <time name="dav">    0.16    0.28</time>
   <time name="total">    1.16    1.86</time>
   <energy>
    <i name="e_fr_energy">    -12.09074108 </i>
    <i name="e_wo_entrp">    -12.09074108 </i>
    <i name="e_0_energy">    -12.09074108 </i>
   </energy>
  </scstep>
  <scstep>
   <time name="dav">    0.11    0.19</time>
   <time name="total">    1.10    1.77</time>
   <energy>
    <i name="e_fr_energy">    -12.09078835 </i>
    <i name="e_wo_entrp">    -12.09078835 </i>
    <i name="e_0_energy">    -12.09078835 </i>
   </energy>
  </scstep>
  <scstep>
   <time name="dav">    0.27    0.27</time>
   <time name="total">    1.48    1.78</time>
   <energy>
    <i name="e_fr_energy">    -12.09083153 </i>
    <i name="e_wo_entrp">    -12.09083153 </i>
    <i name="e_0_energy">    -12.09083153 </i>
   </energy>
  </scstep>
  <scstep>
   <time name="dav">    0.18    0.18</time>
   <time name="total">    1.64    1.67</time>
   <energy>
    <i name="e_fr_energy">    -12.09085010 </i>
    <i name="e_wo_entrp">    -12.09085010 </i>
    <i name="e_0_energy">    -12.09085010 </i>
   </energy>
  </scstep>
  <scstep>
   <time name="dav">    0.24    0.24</time>
   <time name="total">    1.82    1.84</time>
   <energy>
    <i name="e_fr_energy">    -12.09086241 </i>
    <i name="e_wo_entrp">    -12.09086241 </i>
    <i name="e_0_energy">    -12.09086241 </i>
   </energy>
  </scstep>
  <scstep>
   <time name="dav">    0.30    0.32</time>
   <time name="total">    1.83    1.87</time>
   <energy>
    <i name="e_fr_energy">    -12.09086575 </i>
    <i name="e_wo_entrp">    -12.09086575 </i>
    <i name="e_0_energy">    -12.09086575 </i>
   </energy>
  </scstep>
  <scstep>
   <time name="dav">    0.33    0.33</time>
   <time name="total">    1.85    1.86</time>
   <energy>
    <i name="e_fr_energy">    -12.09086775 </i>
    <i name="e_wo_entrp">    -12.09086775 </i>
    <i name="e_0_energy">    -12.09086775 </i>
   </energy>
  </scstep>
  <scstep>
   <time name="dav">    0.27    0.27</time>
   <time name="total">    1.75    1.77</time>
   <energy>
    <i name="e_fr_energy">    -12.09086978 </i>
    <i name="e_wo_entrp">    -12.09086978 </i>
    <i name="e_0_energy">    -12.09086978 </i>
   </energy>
  </scstep>
  <scstep>
   <time name="dav">    0.24    0.24</time>
   <time name="total">    1.72    1.73</time>
   <energy>
    <i name="e_fr_energy">    -12.09087076 </i>
    <i name="e_wo_entrp">    -12.09087076 </i>
    <i name="e_0_energy">    -12.09087076 </i>
   </energy>
  </scstep>
  <scstep>
   <time name="dav">    0.27    0.27</time>
   <time name="total">    1.80    1.82</time>
   <energy>
    <i name="e_fr_energy">    -12.09087114 </i>
    <i name="e_wo_entrp">    -12.09087114 </i>
    <i name="e_0_energy">    -12.09087114 </i>
   </energy>
  </scstep>
  <scstep>
   <time name="dav">    0.26    0.26</time>
   <time name="total">    1.73    1.75</time>
   <energy>
    <i name="e_fr_energy">    -12.09087145 </i>
    <i name="e_wo_entrp">    -12.09087145 </i>
    <i name="e_0_energy">    -12.09087145 </i>
   </energy>
  </scstep>
  <scstep>
   <time name="dav">    0.30    0.30</time>
   <time name="total">    1.77    1.80</time>
   <energy>
    <i name="e_fr_energy">    -12.09087153 </i>
    <i name="e_wo_entrp">    -12.09087153 </i>
    <i name="e_0_energy">    -12.09087153 </i>
   </energy>
  </scstep>
  <scstep>
   <time name="dav">    0.15    0.25</time>
   <time name="total">    1.16    1.85</time>
   <energy>
    <i name="e_fr_energy">    -12.09087159 </i>
    <i name="e_wo_entrp">    -12.09087159 </i>
    <i name="e_0_energy">    -12.09087159 </i>
   </energy>
  </scstep>
  <scstep>
   <time name="dav">    0.14    0.24</time>
   <time name="total">    1.13    1.85</time>
   <energy>
    <i name="e_fr_energy">    -12.09087162 </i>
    <i name="e_wo_entrp">    -12.09087162 </i>
    <i name="e_0_energy">    -12.09087162 </i>
   </energy>
  </scstep>
  <scstep>
   <time name="dav">    0.12    0.21</time>
   <time name="total">    0.63    1.21</time>
   <energy>
    <i name="alphaZ">      0.03722024 </i>
    <i name="ewald">     66.73145602 </i>
    <i name="hartreedc">   -203.21105076 </i>
    <i name="XCdc">     18.28270874 </i>
    <i name="pawpsdc">    274.40269910 </i>
    <i name="pawaedc">   -275.07987708 </i>
    <i name="eentropy">     -0.00000000 </i>
    <i name="bandstr">    -65.33851707 </i>
    <i name="atom">    172.08448920 </i>
    <i name="e_fr_energy">    -12.09087162 </i>
    <i name="e_wo_entrp">    -12.09087162 </i>
    <i name="e_0_energy">    -12.09087162 </i>
   </energy>
  </scstep>
  <structure>
   <crystal>
    <varray name="basis" >
     <v>      16.00000000       0.00000000       0.00000000 </v>
     <v>       0.00000000      16.00000000       0.00000000 </v>
     <v>       0.00000000       0.00000000      16.00000000 </v>
    </varray>
    <i name="volume">   4096.00000000 </i>
    <varray name="rec_basis" >
     <v>       0.06250000       0.00000000       0.00000000 </v>
     <v>       0.00000000       0.06250000       0.00000000 </v>
     <v>       0.00000000       0.00000000       0.06250000 </v>
    </varray>
   </crystal>
   <varray name="positions" >
    <v>       0.51576065       0.43794935       0.50000000 </v>
    <v>       0.51576066       0.56205065       0.50000000 </v>
    <v>       0.48710623       0.50000000       0.50000000 </v>
   </varray>
  </structure>
  <varray name="forces" >
   <v>      -0.21523428       0.10835959       0.00000000 </v>
   <v>      -0.21523469      -0.10836047       0.00000000 </v>
   <v>       0.43046897       0.00000088       0.00000000 </v>
  </varray>
  <varray name="stress" >
   <v>      -0.19219645      -0.00000016       0.00000000 </v>
   <v>      -0.00000016      -0.19163740       0.00000000 </v>
   <v>       0.00000000       0.00000000      -0.12212055 </v>
  </varray>
  <energy>
   <i name="e_fr_energy">    -12.09087162 </i>
   <i name="e_wo_entrp">    -12.09087162 </i>
   <i name="e_0_energy">     -0.00000000 </i>
  </energy>
  <time name="totalsc">   42.66   48.91</time>
 </calculation>
 <calculation>
  <scstep>
   <time name="dav">    0.11    0.19</time>
   <time name="total">    1.14    1.80</time>
   <energy>
    <i name="alphaZ">      0.03722024 </i>
    <i name="ewald">     66.45978401 </i>
    <i name="hartreedc">   -203.06511703 </i>
    <i name="XCdc">     18.27558042 </i>
    <i name="pawpsdc">    274.40270975 </i>
    <i name="pawaedc">   -275.07988774 </i>
    <i name="eentropy">     -0.00000000 </i>
    <i name="bandstr">    -65.20595326 </i>
    <i name="atom">    172.08448920 </i>
    <i name="e_fr_energy">    -12.09117441 </i>
    <i name="e_wo_entrp">    -12.09117441 </i>
    <i name="e_0_energy">    -12.09117441 </i>
   </energy>
  </scstep>
  <scstep>
   <time name="dav">    0.17    0.26</time>
   <time name="total">    1.16    1.82</time>
   <energy>
    <i name="e_fr_energy">    -12.09084718 </i>
    <i name="e_wo_entrp">    -12.09084718 </i>
    <i name="e_0_energy">    -12.09084718 </i>
   </energy>
  </scstep>
  <scstep>
   <time name="dav">    0.18    0.31</time>
   <time name="total">    1.19    1.90</time>
   <energy>
    <i name="e_fr_energy">    -12.09096633 </i>
    <i name="e_wo_entrp">    -12.09096633 </i>
    <i name="e_0_energy">    -12.09096633 </i>
   </energy>
  </scstep>
  <scstep>
   <time name="dav">    0.15    0.24</time>
   <time name="total">    1.17    1.82</time>
   <energy>
    <i name="e_fr_energy">    -12.09106275 </i>
    <i name="e_wo_entrp">    -12.09106275 </i>
    <i name="e_0_energy">    -12.09106275 </i>
   </energy>
  </scstep>
  <scstep>
   <time name="dav">    0.12    0.22</time>
   <time name="total">    1.11    1.78</time>
   <energy>
    <i name="e_fr_energy">    -12.09113595 </i>
    <i name="e_wo_entrp">    -12.09113595 </i>
    <i name="e_0_energy">    -12.09113595 </i>
   </energy>
  </scstep>
  <scstep>
   <time name="dav">    0.14    0.25</time>
   <time name="total">    1.17    1.83</time>
   <energy>
    <i name="e_fr_energy">    -12.09119688 </i>
    <i name="e_wo_entrp">    -12.09119688 </i>
    <i name="e_0_energy">    -12.09119688 </i>
   </energy>
  </scstep>
  <scstep>
   <time name="dav">    0.17    0.30</time>
   <time name="total">    1.19    1.89</time>
   <energy>
    <i name="e_fr_energy">    -12.09121185 </i>
    <i name="e_wo_entrp">    -12.09121185 </i>
    <i name="e_0_energy">    -12.09121185 </i>
   </energy>
  </scstep>
  <scstep>
   <time name="dav">    0.14    0.25</time>
   <time name="total">    1.14    1.85</time>
   <energy>
    <i name="e_fr_energy">    -12.09122278 </i>
    <i name="e_wo_entrp">    -12.09122278 </i>
    <i name="e_0_energy">    -12.09122278 </i>
   </energy>
  </scstep>
  <scstep>
   <time name="dav">    0.21    0.24</time>
   <time name="total">    1.50    1.76</time>
   <energy>
    <i name="e_fr_energy">    -12.09123650 </i>
    <i name="e_wo_entrp">    -12.09123650 </i>
    <i name="e_0_energy">    -12.09123650 </i>
   </energy>
  </scstep>
  <scstep>
   <time name="dav">    0.13    0.22</time>
   <time name="total">    1.18    1.86</time>
   <energy>
    <i name="e_fr_energy">    -12.09124358 </i>
    <i name="e_wo_entrp">    -12.09124358 </i>
    <i name="e_0_energy">    -12.09124358 </i>
   </energy>
  </scstep>
  <scstep>
   <time name="dav">    0.19    0.21</time>
   <time name="total">    1.28    1.75</time>
   <energy>
    <i name="e_fr_energy">    -12.09124788 </i>
    <i name="e_wo_entrp">    -12.09124788 </i>
    <i name="e_0_energy">    -12.09124788 </i>
   </energy>
  </scstep>
  <scstep>
   <time name="dav">    0.16    0.27</time>
   <time name="total">    1.25    2.04</time>
   <energy>
    <i name="e_fr_energy">    -12.09124858 </i>
    <i name="e_wo_entrp">    -12.09124858 </i>
    <i name="e_0_energy">    -12.09124858 </i>
   </energy>
  </scstep>
  <scstep>
   <time name="dav">    0.15    0.23</time>
   <time name="total">    1.14    1.79</time>
   <energy>
    <i name="e_fr_energy">    -12.09124966 </i>
    <i name="e_wo_entrp">    -12.09124966 </i>
    <i name="e_0_energy">    -12.09124966 </i>
   </energy>
  </scstep>
  <scstep>
   <time name="dav">    0.19    0.21</time>
   <time name="total">    1.32    1.80</time>
   <energy>
    <i name="e_fr_energy">    -12.09125041 </i>
    <i name="e_wo_entrp">    -12.09125041 </i>
    <i name="e_0_energy">    -12.09125041 </i>
   </energy>
  </scstep>
  <scstep>
   <time name="dav">    0.16    0.27</time>
   <time name="total">    1.17    1.86</time>
   <energy>
    <i name="e_fr_energy">    -12.09125083 </i>
    <i name="e_wo_entrp">    -12.09125083 </i>
    <i name="e_0_energy">    -12.09125083 </i>
   </energy>
  </scstep>
  <scstep>
   <time name="dav">    0.21    0.24</time>
   <time name="total">    1.47    1.82</time>
   <energy>
    <i name="e_fr_energy">    -12.09125104 </i>
    <i name="e_wo_entrp">    -12.09125104 </i>
    <i name="e_0_energy">    -12.09125104 </i>
   </energy>
  </scstep>
  <scstep>
   <time name="dav">    0.31    0.35</time>
   <time name="total">    1.68    1.95</time>
   <energy>
    <i name="e_fr_energy">    -12.09125107 </i>
    <i name="e_wo_entrp">    -12.09125107 </i>
    <i name="e_0_energy">    -12.09125107 </i>
   </energy>
  </scstep>
  <scstep>
   <time name="dav">    0.31    0.31</time>
   <time name="total">    1.49    1.85</time>
   <energy>
    <i name="e_fr_energy">    -12.09125111 </i>
    <i name="e_wo_entrp">    -12.09125111 </i>
    <i name="e_0_energy">    -12.09125111 </i>
   </energy>
  </scstep>
  <scstep>
   <time name="dav">    0.27    0.27</time>
   <time name="total">    1.99    2.01</time>
   <energy>
    <i name="e_fr_energy">    -12.09125113 </i>
    <i name="e_wo_entrp">    -12.09125113 </i>
    <i name="e_0_energy">    -12.09125113 </i>
   </energy>
  </scstep>
  <scstep>
   <time name="dav">    0.24    0.24</time>
   <time name="total">    1.77    1.79</time>
   <energy>
    <i name="e_fr_energy">    -12.09125115 </i>
    <i name="e_wo_entrp">    -12.09125115 </i>
    <i name="e_0_energy">    -12.09125115 </i>
   </energy>
  </scstep>
  <scstep>
   <time name="dav">    0.30    0.30</time>
   <time name="total">    1.27    1.28</time>
   <energy>
    <i name="alphaZ">      0.03722024 </i>
    <i name="ewald">     66.45978401 </i>
    <i name="hartreedc">   -202.98238975 </i>
    <i name="XCdc">     18.26781213 </i>
    <i name="pawpsdc">    273.10411386 </i>
    <i name="pawaedc">   -273.78020939 </i>
    <i name="eentropy">     -0.00000000 </i>
    <i name="bandstr">    -65.28207145 </i>
    <i name="atom">    172.08448920 </i>
    <i name="e_fr_energy">    -12.09125115 </i>
    <i name="e_wo_entrp">    -12.09125115 </i>
    <i name="e_0_energy">    -12.09125115 </i>
   </energy>
  </scstep>
  <structure>
   <crystal>
    <varray name="basis" >
     <v>      16.00000000       0.00000000       0.00000000 </v>
     <v>       0.00000000      16.00000000       0.00000000 </v>
     <v>       0.00000000       0.00000000      16.00000000 </v>
    </varray>
    <i name="volume">   4096.00000000 </i>
    <varray name="rec_basis" >
     <v>       0.06250000       0.00000000       0.00000000 </v>
     <v>       0.00000000       0.06250000       0.00000000 </v>
     <v>       0.00000000       0.00000000       0.06250000 </v>
    </varray>
   </crystal>
   <varray name="positions" >
    <v>       0.51567610       0.43766210       0.50000000 </v>
    <v>       0.51567610       0.56233790       0.50000000 </v>
    <v>       0.48727534       0.50000000       0.50000000 </v>
   </varray>
  </structure>
  <varray name="forces" >
   <v>      -0.22831203       0.20059343       0.00000000 </v>
   <v>      -0.22831245      -0.20059434       0.00000000 </v>
   <v>       0.45662448       0.00000092       0.00000000 </v>
  </varray>
  <varray name="stress" >
   <v>      -0.19587713      -0.00000016       0.00000000 </v>
   <v>      -0.00000016      -0.26302454       0.00000000 </v>
   <v>       0.00000000       0.00000000      -0.12193926 </v>
  </varray>
  <energy>
   <i name="e_fr_energy">    -12.09125115 </i>
   <i name="e_wo_entrp">    -12.09125115 </i>
   <i name="e_0_energy">     -0.00000000 </i>
  </energy>
  <time name="totalsc">   30.49   41.01</time>
 </calculation>
 <calculation>
  <scstep>
   <time name="dav">    0.18    0.18</time>
   <time name="total">    1.76    1.79</time>
   <energy>
    <i name="alphaZ">      0.03722024 </i>
    <i name="ewald">     67.38597563 </i>
    <i name="hartreedc">   -203.47222990 </i>
    <i name="XCdc">     18.32038428 </i>
    <i name="pawpsdc">    273.10411409 </i>
    <i name="pawaedc">   -273.78020961 </i>
    <i name="eentropy">     -0.00000000 </i>
    <i name="bandstr">    -65.75481710 </i>
    <i name="atom">    172.08448920 </i>
    <i name="e_fr_energy">    -12.07507317 </i>
    <i name="e_wo_entrp">    -12.07507317 </i>
    <i name="e_0_energy">    -12.07507317 </i>
   </energy>
  </scstep>
  <scstep>
   <time name="dav">    0.24    0.24</time>
   <time name="total">    1.77    1.78</time>
   <energy>
    <i name="e_fr_energy">    -12.07736113 </i>
    <i name="e_wo_entrp">    -12.07736113 </i>
    <i name="e_0_energy">    -12.07736113 </i>
   </energy>
  </scstep>
  <scstep>
   <time name="dav">    0.24    0.24</time>
   <time name="total">    1.75    1.77</time>
   <energy>
    <i name="e_fr_energy">    -12.09143074 </i>
    <i name="e_wo_entrp">    -12.09143074 </i>
    <i name="e_0_energy">    -12.09143074 </i>
   </energy>
  </scstep>
  <scstep>
   <time name="dav">    0.24    0.24</time>
   <time name="total">    1.71    1.74</time>
   <energy>
    <i name="e_fr_energy">    -12.09396691 </i>
    <i name="e_wo_entrp">    -12.09396691 </i>
    <i name="e_0_energy">    -12.09396691 </i>
   </energy>
  </scstep>
  <scstep>
   <time name="dav">    0.18    0.18</time>
   <time name="total">    1.71    1.74</time>
   <energy>
    <i name="e_fr_energy">    -12.09608612 </i>
    <i name="e_wo_entrp">    -12.09608612 </i>
    <i name="e_0_energy">    -12.09608612 </i>
   </energy>
  </scstep>
  <scstep>
   <time name="dav">    0.17    0.18</time>
   <time name="total">    1.62    1.65</time>
   <energy>
    <i name="e_fr_energy">    -12.09719077 </i>
    <i name="e_wo_entrp">    -12.09719077 </i>
    <i name="e_0_energy">    -12.09719077 </i>
   </energy>
  </scstep>
  <scstep>
   <time name="dav">    0.23    0.24</time>
   <time name="total">    1.71    1.74</time>
   <energy>
    <i name="e_fr_energy">    -12.09768413 </i>
    <i name="e_wo_entrp">    -12.09768413 </i>
    <i name="e_0_energy">    -12.09768413 </i>
   </energy>
  </scstep>
  <scstep>
   <time name="dav">    0.18    0.18</time>
   <time name="total">    1.71    1.72</time>
   <energy>
    <i name="e_fr_energy">    -12.09806039 </i>
    <i name="e_wo_entrp">    -12.09806039 </i>
    <i name="e_0_energy">    -12.09806039 </i>
   </energy>
  </scstep>
  <scstep>
   <time name="dav">    0.31    0.31</time>
   <time name="total">    1.79    1.82</time>
   <energy>
    <i name="e_fr_energy">    -12.09840498 </i>
    <i name="e_wo_entrp">    -12.09840498 </i>
    <i name="e_0_energy">    -12.09840498 </i>
   </energy>
  </scstep>
  <scstep>
   <time name="dav">    0.20    0.20</time>
   <time name="total">    1.75    1.78</time>
   <energy>
    <i name="e_fr_energy">    -12.09846848 </i>
    <i name="e_wo_entrp">    -12.09846848 </i>
    <i name="e_0_energy">    -12.09846848 </i>
   </energy>
  </scstep>
  <scstep>
   <time name="dav">    0.42    0.43</time>
   <time name="total">    1.89    1.91</time>
   <energy>
    <i name="e_fr_energy">    -12.09849414 </i>
    <i name="e_wo_entrp">    -12.09849414 </i>
    <i name="e_0_energy">    -12.09849414 </i>
   </energy>
  </scstep>
  <scstep>
   <time name="dav">    0.21    0.21</time>
   <time name="total">    1.74    1.82</time>
   <energy>
    <i name="e_fr_energy">    -12.09850482 </i>
    <i name="e_wo_entrp">    -12.09850482 </i>
    <i name="e_0_energy">    -12.09850482 </i>
   </energy>
  </scstep>
  <scstep>
   <time name="dav">    0.25    0.25</time>
   <time name="total">    1.80    1.82</time>
   <energy>
    <i name="e_fr_energy">    -12.09852130 </i>
    <i name="e_wo_entrp">    -12.09852130 </i>
    <i name="e_0_energy">    -12.09852130 </i>
   </energy>
  </scstep>
  <scstep>
   <time name="dav">    0.20    0.20</time>
   <time name="total">    1.70    1.71</time>
   <energy>
    <i name="e_fr_energy">    -12.09853498 </i>
    <i name="e_wo_entrp">    -12.09853498 </i>
    <i name="e_0_energy">    -12.09853498 </i>
   </energy>
  </scstep>
  <scstep>
   <time name="dav">    0.24    0.24</time>
   <time name="total">    1.70    1.70</time>
   <energy>
    <i name="e_fr_energy">    -12.09853933 </i>
    <i name="e_wo_entrp">    -12.09853933 </i>
    <i name="e_0_energy">    -12.09853933 </i>
   </energy>
  </scstep>
  <scstep>
   <time name="dav">    0.28    0.28</time>
   <time name="total">    1.37    1.85</time>
   <energy>
    <i name="e_fr_energy">    -12.09854070 </i>
    <i name="e_wo_entrp">    -12.09854070 </i>
    <i name="e_0_energy">    -12.09854070 </i>
   </energy>
  </scstep>
  <scstep>
   <time name="dav">    0.24    0.36</time>
   <time name="total">    1.77    1.97</time>
   <energy>
    <i name="e_fr_energy">    -12.09854119 </i>
    <i name="e_wo_entrp">    -12.09854119 </i>
    <i name="e_0_energy">    -12.09854119 </i>
   </energy>
  </scstep>
  <scstep>
   <time name="dav">    0.30    0.30</time>
   <time name="total">    1.78    1.82</time>
   <energy>
    <i name="e_fr_energy">    -12.09854174 </i>
    <i name="e_wo_entrp">    -12.09854174 </i>
    <i name="e_0_energy">    -12.09854174 </i>
   </energy>
  </scstep>
  <scstep>
   <time name="dav">    0.24    0.25</time>
   <time name="total">    1.72    1.76</time>
   <energy>
    <i name="e_fr_energy">    -12.09854217 </i>
    <i name="e_wo_entrp">    -12.09854217 </i>
    <i name="e_0_energy">    -12.09854217 </i>
   </energy>
  </scstep>
  <scstep>
   <time name="dav">    0.29    0.29</time>
   <time name="total">    1.72    1.76</time>
   <energy>
    <i name="e_fr_energy">    -12.09854233 </i>
    <i name="e_wo_entrp">    -12.09854233 </i>
    <i name="e_0_energy">    -12.09854233 </i>
   </energy>
  </scstep>
  <scstep>
   <time name="dav">    0.26    0.27</time>
   <time name="total">    1.73    1.76</time>
   <energy>
    <i name="e_fr_energy">    -12.09854246 </i>
    <i name="e_wo_entrp">    -12.09854246 </i>
    <i name="e_0_energy">    -12.09854246 </i>
   </energy>
  </scstep>
  <scstep>
   <time name="dav">    0.21    0.21</time>
   <time name="total">    1.71    1.74</time>
   <energy>
    <i name="e_fr_energy">    -12.09854250 </i>
    <i name="e_wo_entrp">    -12.09854250 </i>
    <i name="e_0_energy">    -12.09854250 </i>
   </energy>
  </scstep>
  <scstep>
   <time name="dav">    0.28    0.29</time>
   <time name="total">    1.77    1.80</time>
   <energy>
    <i name="e_fr_energy">    -12.09854252 </i>
    <i name="e_wo_entrp">    -12.09854252 </i>
    <i name="e_0_energy">    -12.09854252 </i>
   </energy>
  </scstep>
  <scstep>
   <time name="dav">    0.26    0.27</time>
   <time name="total">    1.22    1.23</time>
   <energy>
    <i name="alphaZ">      0.03722024 </i>
    <i name="ewald">     67.38597563 </i>
    <i name="hartreedc">   -203.69070564 </i>
    <i name="XCdc">     18.31123603 </i>
    <i name="pawpsdc">    279.54090577 </i>
    <i name="pawaedc">   -280.22181066 </i>
    <i name="eentropy">     -0.00000000 </i>
    <i name="bandstr">    -65.54585310 </i>
    <i name="atom">    172.08448920 </i>
    <i name="e_fr_energy">    -12.09854253 </i>
    <i name="e_wo_entrp">    -12.09854253 </i>
    <i name="e_0_energy">    -12.09854253 </i>
   </energy>
  </scstep>
  <structure>
   <crystal>
    <varray name="basis" >
     <v>      16.00000000       0.00000000       0.00000000 </v>
     <v>       0.00000000      16.00000000       0.00000000 </v>
     <v>       0.00000000       0.00000000      16.00000000 </v>
    </varray>
    <i name="volume">   4096.00000000 </i>
    <varray name="rec_basis" >
     <v>       0.06250000       0.00000000       0.00000000 </v>
     <v>       0.00000000       0.06250000       0.00000000 </v>
     <v>       0.00000000       0.00000000       0.06250000 </v>
    </varray>
   </crystal>
   <varray name="positions" >
    <v>       0.51469085       0.43708918       0.50000000 </v>
    <v>       0.51469085       0.56291082       0.50000000 </v>
    <v>       0.48924584       0.50000000       0.50000000 </v>
   </varray>
  </structure>
  <varray name="forces" >
   <v>       0.02451597       0.01184065       0.00000000 </v>
   <v>       0.02451712      -0.01183782       0.00000000 </v>
   <v>      -0.04903309      -0.00000283       0.00000000 </v>
  </varray>
  <varray name="stress" >
   <v>      -0.10894582       0.00000045       0.00000000 </v>
   <v>       0.00000045      -0.11827529       0.00000000 </v>
   <v>       0.00000000       0.00000000      -0.12244367 </v>
  </varray>
  <energy>
   <i name="e_fr_energy">    -12.09854253 </i>
   <i name="e_wo_entrp">    -12.09854253 </i>
   <i name="e_0_energy">     -0.00000000 </i>
  </energy>
  <time name="totalsc">   43.26   44.86</time>
 </calculation>
 <calculation>
  <scstep>
   <time name="dav">    0.16    0.18</time>
   <time name="total">    1.63    1.83</time>
   <energy>
    <i name="alphaZ">      0.03722024 </i>
    <i name="ewald">     67.26885013 </i>
    <i name="hartreedc">   -203.62936883 </i>
    <i name="XCdc">     18.30580676 </i>
    <i name="pawpsdc">    279.54090905 </i>
    <i name="pawaedc">   -280.22181394 </i>
    <i name="eentropy">     -0.00000000 </i>
    <i name="bandstr">    -65.48454413 </i>
    <i name="atom">    172.08448920 </i>
    <i name="e_fr_energy">    -12.09845153 </i>
    <i name="e_wo_entrp">    -12.09845153 </i>
    <i name="e_0_energy">    -12.09845153 </i>
   </energy>
  </scstep>
  <scstep>
   <time name="dav">    0.21    0.21</time>
   <time name="total">    1.42    1.69</time>
   <energy>
    <i name="e_fr_energy">    -12.09823607 </i>
    <i name="e_wo_entrp">    -12.09823607 </i>
    <i name="e_0_energy">    -12.09823607 </i>
   </energy>
  </scstep>
  <scstep>
   <time name="dav">    0.31    0.31</time>
   <time name="total">    1.88    1.90</time>
   <energy>
    <i name="e_fr_energy">    -12.09843437 </i>
    <i name="e_wo_entrp">    -12.09843437 </i>
    <i name="e_0_energy">    -12.09843437 </i>
   </energy>
  </scstep>
  <scstep>
   <time name="dav">    0.20    0.21</time>
   <time name="total">    1.63    1.66</time>
   <energy>
    <i name="e_fr_energy">    -12.09847865 </i>
    <i name="e_wo_entrp">    -12.09847865 </i>
    <i name="e_0_energy">    -12.09847865 </i>
   </energy>
  </scstep>
  <scstep>
   <time name="dav">    0.27    0.27</time>
   <time name="total">    1.79    1.81</time>
   <energy>
    <i name="e_fr_energy">    -12.09856708 </i>
    <i name="e_wo_entrp">    -12.09856708 </i>
    <i name="e_0_energy">    -12.09856708 </i>
   </energy>
  </scstep>
  <scstep>
   <time name="dav">    0.27    0.27</time>
   <time name="total">    1.75    1.76</time>
   <energy>
    <i name="e_fr_energy">    -12.09862814 </i>
    <i name="e_wo_entrp">    -12.09862814 </i>
    <i name="e_0_energy">    -12.09862814 </i>
   </energy>
  </scstep>
  <scstep>
   <time name="dav">    0.29    0.30</time>
   <time name="total">    1.74    1.77</time>
   <energy>
    <i name="e_fr_energy">    -12.09866799 </i>
    <i name="e_wo_entrp">    -12.09866799 </i>
    <i name="e_0_energy">    -12.09866799 </i>
   </energy>
  </scstep>
  <scstep>
   <time name="dav">    0.30    0.30</time>
   <time name="total">    1.86    1.89</time>
   <energy>
    <i name="e_fr_energy">    -12.09869599 </i>
    <i name="e_wo_entrp">    -12.09869599 </i>
    <i name="e_0_energy">    -12.09869599 </i>
   </energy>
  </scstep>
  <scstep>
   <time name="dav">    0.28    0.29</time>
   <time name="total">    1.74    1.76</time>
   <energy>
    <i name="e_fr_energy">    -12.09871139 </i>
    <i name="e_wo_entrp">    -12.09871139 </i>
    <i name="e_0_energy">    -12.09871139 </i>
   </energy>
  </scstep>
  <scstep>
   <time name="dav">    0.34    0.34</time>
   <time name="total">    1.89    1.92</time>
   <energy>
    <i name="e_fr_energy">    -12.09871489 </i>
    <i name="e_wo_entrp">    -12.09871489 </i>
    <i name="e_0_energy">    -12.09871489 </i>
   </energy>
  </scstep>
  <scstep>
   <time name="dav">    0.24    0.24</time>
   <time name="total">    1.88    1.90</time>
   <energy>
    <i name="e_fr_energy">    -12.09871455 </i>
    <i name="e_wo_entrp">    -12.09871455 </i>
    <i name="e_0_energy">    -12.09871455 </i>
   </energy>
  </scstep>
  <scstep>
   <time name="dav">    0.24    0.25</time>
   <time name="total">    1.69    1.72</time>
   <energy>
    <i name="e_fr_energy">    -12.09871519 </i>
    <i name="e_wo_entrp">    -12.09871519 </i>
    <i name="e_0_energy">    -12.09871519 </i>
   </energy>
  </scstep>
  <scstep>
   <time name="dav">    0.21    0.21</time>
   <time name="total">    1.74    1.75</time>
   <energy>
    <i name="e_fr_energy">    -12.09871686 </i>
    <i name="e_wo_entrp">    -12.09871686 </i>
    <i name="e_0_energy">    -12.09871686 </i>
   </energy>
  </scstep>
  <scstep>
   <time name="dav">    0.21    0.22</time>
   <time name="total">    1.68    1.71</time>
   <energy>
    <i name="e_fr_energy">    -12.09871770 </i>
    <i name="e_wo_entrp">    -12.09871770 </i>
    <i name="e_0_energy">    -12.09871770 </i>
   </energy>
  </scstep>
  <scstep>
   <time name="dav">    0.21    0.21</time>
   <time name="total">    1.67    1.70</time>
   <energy>
    <i name="e_fr_energy">    -12.09871805 </i>
    <i name="e_wo_entrp">    -12.09871805 </i>
    <i name="e_0_energy">    -12.09871805 </i>
   </energy>
  </scstep>
  <scstep>
   <time name="dav">    0.27    0.27</time>
   <time name="total">    1.87    1.88</time>
   <energy>
    <i name="e_fr_energy">    -12.09871816 </i>
    <i name="e_wo_entrp">    -12.09871816 </i>
    <i name="e_0_energy">    -12.09871816 </i>
   </energy>
  </scstep>
  <scstep>
   <time name="dav">    0.30    0.30</time>
   <time name="total">    1.77    1.80</time>
   <energy>
    <i name="e_fr_energy">    -12.09871822 </i>
    <i name="e_wo_entrp">    -12.09871822 </i>
    <i name="e_0_energy">    -12.09871822 </i>
   </energy>
  </scstep>
  <scstep>
   <time name="dav">    0.27    0.28</time>
   <time name="total">    1.82    1.84</time>
   <energy>
    <i name="e_fr_energy">    -12.09871828 </i>
    <i name="e_wo_entrp">    -12.09871828 </i>
    <i name="e_0_energy">    -12.09871828 </i>
   </energy>
  </scstep>
  <scstep>
   <time name="dav">    0.36    0.36</time>
   <time name="total">    1.86    1.89</time>
   <energy>
    <i name="e_fr_energy">    -12.09871830 </i>
    <i name="e_wo_entrp">    -12.09871830 </i>
    <i name="e_0_energy">    -12.09871830 </i>
   </energy>
  </scstep>
  <scstep>
   <time name="dav">    0.24    0.24</time>
   <time name="total">    1.84    1.86</time>
   <energy>
    <i name="e_fr_energy">    -12.09871831 </i>
    <i name="e_wo_entrp">    -12.09871831 </i>
[...]
        <r>    -4.7053     0.0000     0.0000     0.0000     0.0000     0.0000     0.0000     0.0000     0.0000     0.0000 </r>
        <r>    -4.6421     0.0000     0.0000     0.0000     0.0000     0.0000     0.0000     0.0000     0.0000     0.0000 </r>
        <r>    -4.5789     0.0000     0.0000     0.0000     0.0000     0.0000     0.0000     0.0000     0.0000     0.0000 </r>
        <r>    -4.5157     0.0000     0.0000     0.0000     0.0000     0.0000     0.0000     0.0000     0.0000     0.0000 </r>
        <r>    -4.4525     0.0000     0.0000     0.0000     0.0000     0.0000     0.0000     0.0000     0.0000     0.0000 </r>
        <r>    -4.3893     0.0000     0.0000     0.0000     0.0000     0.0000     0.0000     0.0000     0.0000     0.0000 </r>
        <r>    -4.3261     0.0000     0.0000     0.0000     0.0000     0.0000     0.0000     0.0000     0.0000     0.0000 </r>
        <r>    -4.2629     0.0000     0.0000     0.0000     0.0000     0.0000     0.0000     0.0000     0.0000     0.0000 </r>
        <r>    -4.1997     0.0000     0.0000     0.0000     0.0000     0.0000     0.0000     0.0000     0.0000     0.0000 </r>
        <r>    -4.1365     0.0000     0.0000     0.0000     0.0000     0.0000     0.0000     0.0000     0.0000     0.0000 </r>
        <r>    -4.0733     0.0000     0.0000     0.0000     0.0000     0.0000     0.0000     0.0000     0.0000     0.0000 </r>
        <r>    -4.0101     0.0000     0.0000     0.0000     0.0000     0.0000     0.0000     0.0000     0.0000     0.0000 </r>
        <r>    -3.9469     0.0000     0.0000     0.0000     0.0000     0.0000     0.0000     0.0000     0.0000     0.0000 </r>
        <r>    -3.8837     0.0000     0.0000     0.0000     0.0000     0.0000     0.0000     0.0000     0.0000     0.0000 </r>
        <r>    -3.8204     0.0000     0.0000     0.0000     0.0000     0.0000     0.0000     0.0000     0.0000     0.0000 </r>
        <r>    -3.7572     0.0000     0.0000     0.0000     0.0000     0.0000     0.0000     0.0000     0.0000     0.0000 </r>
        <r>    -3.6940     0.0000     0.0000     0.0000     0.0000     0.0000     0.0000     0.0000     0.0000     0.0000 </r>
        <r>    -3.6308     0.0000     0.0000     0.0000     0.0000     0.0000     0.0000     0.0000     0.0000     0.0000 </r>
        <r>    -3.5676     0.0000     0.0000     0.0000     0.0000     0.0000     0.0000     0.0000     0.0000     0.0000 </r>
        <r>    -3.5044     0.0000     0.0000     0.0000     0.0000     0.0000     0.0000     0.0000     0.0000     0.0000 </r>
        <r>    -3.4412     0.0000     0.0000     0.0000     0.0000     0.0000     0.0000     0.0000     0.0000     0.0000 </r>
        <r>    -3.3780     0.0000     0.0000     0.0000     0.0000     0.0000     0.0000     0.0000     0.0000     0.0000 </r>
        <r>    -3.3148     0.0000     0.0000     0.0000     0.0000     0.0000     0.0000     0.0000     0.0000     0.0000 </r>
        <r>    -3.2516     0.0000     0.0000     0.0000     0.0000     0.0000     0.0000     0.0000     0.0000     0.0000 </r>
        <r>    -3.1884     0.0000     0.0000     0.0000     0.0000     0.0000     0.0000     0.0000     0.0000     0.0000 </r>
        <r>    -3.1252     0.0000     0.0000     0.0000     0.0000     0.0000     0.0000     0.0000     0.0000     0.0000 </r>
        <r>    -3.0620     0.0004     0.0000     0.0000     0.0027     0.0000     0.0000     0.0000     0.0000     0.0000 </r>
        <r>    -2.9988     0.6996     0.0000     0.0000     4.7274     0.0000     0.0000     0.0000     0.0000     0.0000 </r>
        <r>    -2.9356     0.0000     0.0000     0.0000     0.0000     0.0000     0.0000     0.0000     0.0000     0.0000 </r>
        <r>    -2.8724     0.0000     0.0000     0.0000     0.0000     0.0000     0.0000     0.0000     0.0000     0.0000 </r>
        <r>    -2.8092     0.0000     0.0000     0.0000     0.0000     0.0000     0.0000     0.0000     0.0000     0.0000 </r>
        <r>    -2.7460     0.0000     0.0000     0.0000     0.0000     0.0000     0.0000     0.0000     0.0000     0.0000 </r>
        <r>    -2.6828     0.0000     0.0000     0.0000     0.0000     0.0000     0.0000     0.0000     0.0000     0.0000 </r>
        <r>    -2.6196     0.0000     0.0000     0.0000     0.0000     0.0000     0.0000     0.0000     0.0000     0.0000 </r>
        <r>    -2.5564     0.0000     0.0000     0.0000     0.0000     0.0000     0.0000     0.0000     0.0000     0.0000 </r>
        <r>    -2.4932     0.0000     0.0000     0.0000     0.0000     0.0000     0.0000     0.0000     0.0000     0.0000 </r>
        <r>    -2.4300     0.0000     0.0000     5.2447     0.0000     0.0000     0.0000     0.0000     0.0000     0.0000 </r>
        <r>    -2.3668     0.0000     0.0000     0.0524     0.0000     0.0000     0.0000     0.0000     0.0000     0.0000 </r>
        <r>    -2.3036     0.0000     0.0000     0.0000     0.0000     0.0000     0.0000     0.0000     0.0000     0.0000 </r>
        <r>    -2.2404     0.0000     0.0000     0.0000     0.0000     0.0000     0.0000     0.0000     0.0000     0.0000 </r>
        <r>    -2.1772     0.0000     0.0000     0.0000     0.0000     0.0000     0.0000     0.0000     0.0000     0.0000 </r>
        <r>    -2.1140     0.0000     0.0000     0.0000     0.0000     0.0000     0.0000     0.0000     0.0000     0.0000 </r>
        <r>    -2.0508     0.0000     0.0000     0.0000     0.0000     0.0000     0.0000     0.0000     0.0000     0.0000 </r>
        <r>    -1.9876     0.0000     0.0000     0.0000     0.0000     0.0000     0.0000     0.0000     0.0000     0.0000 </r>
        <r>    -1.9244     0.0000     0.0000     0.0000     0.0000     0.0000     0.0000     0.0000     0.0000     0.0000 </r>
        <r>    -1.8612     0.0000     0.0000     0.0000     0.0000     0.0000     0.0000     0.0000     0.0000     0.0000 </r>
        <r>    -1.7980     0.0000     0.0000     0.0000     0.0000     0.0000     0.0000     0.0000     0.0000     0.0000 </r>
        <r>    -1.7348     0.0000     0.0000     0.0000     0.0000     0.0000     0.0000     0.0000     0.0000     0.0000 </r>
        <r>    -1.6716     0.0000     0.0000     0.0000     0.0000     0.0000     0.0000     0.0000     0.0000     0.0000 </r>
        <r>    -1.6084     0.0000     0.0000     0.0000     0.0000     0.0000     0.0000     0.0000     0.0000     0.0000 </r>
        <r>    -1.5452     0.0000     0.0000     0.0000     0.0000     0.0000     0.0000     0.0000     0.0000     0.0000 </r>
        <r>    -1.4820     0.0000     0.0000     0.0000     0.0000     0.0000     0.0000     0.0000     0.0000     0.0000 </r>
        <r>    -1.4188     0.0000     0.0000     0.0000     0.0000     0.0000     0.0000     0.0000     0.0000     0.0000 </r>
        <r>    -1.3555     0.0000     0.0000     0.0000     0.0000     0.0000     0.0000     0.0000     0.0000     0.0000 </r>
        <r>    -1.2923     0.0000     0.0000     0.0000     0.0000     0.0000     0.0000     0.0000     0.0000     0.0000 </r>
        <r>    -1.2291     0.0000     0.0000     0.0000     0.0000     0.0000     0.0000     0.0000     0.0000     0.0000 </r>
        <r>    -1.1659     0.0000     0.0000     0.0000     0.0000     0.0000     0.0000     0.0000     0.0000     0.0000 </r>
        <r>    -1.1027     0.0000     0.0000     0.0000     0.0000     0.0000     0.0000     0.0000     0.0000     0.0000 </r>
        <r>    -1.0395     0.0000     0.0000     0.0000     0.0000     0.0000     0.0000     0.0000     0.0000     0.0000 </r>
        <r>    -0.9763     0.0000     0.0000     0.0000     0.0000     0.0000     0.0000     0.0000     0.0000     0.0000 </r>
        <r>    -0.9131     0.0000     0.0000     0.0000     0.0000     0.0000     0.0000     0.0000     0.0000     0.0000 </r>
        <r>    -0.8499     0.0000     0.0000     0.0000     0.0000     0.0000     0.0000     0.0000     0.0000     0.0000 </r>
        <r>    -0.7867     0.0000     0.0000     0.0000     0.0000     0.0000     0.0000     0.0000     0.0000     0.0000 </r>
        <r>    -0.7235     0.0000     0.0000     0.0000     0.0000     0.0000     0.0000     0.0000     0.0000     0.0000 </r>
        <r>    -0.6603     0.0000     0.0000     0.0000     0.0000     0.0000     0.0000     0.0000     0.0000     0.0000 </r>
        <r>    -0.5971     0.0000     0.0000     0.0000     0.0000     0.0000     0.0000     0.0000     0.0000     0.0000 </r>
        <r>    -0.5339     0.0000     0.0000     0.0000     0.0000     0.0000     0.0000     0.0000     0.0000     0.0000 </r>
        <r>    -0.4707     0.0000     0.0000     0.0000     0.0000     0.0000     0.0000     0.0000     0.0000     0.0000 </r>
        <r>    -0.4075     0.0000     0.0000     0.0000     0.0000     0.0000     0.0000     0.0000     0.0000     0.0000 </r>
        <r>    -0.3443     0.0000     0.0000     0.0000     0.0000     0.0000     0.0000     0.0000     0.0000     0.0000 </r>
        <r>    -0.2811     0.0000     0.0000     0.0000     0.0000     0.0000     0.0000     0.0000     0.0000     0.0000 </r>
        <r>    -0.2179     0.0000     0.0000     0.0000     0.0000     0.0000     0.0000     0.0000     0.0000     0.0000 </r>
        <r>    -0.1547     0.0165     0.0000     0.0000     0.0032     0.0000     0.0000     0.0000     0.0000     0.0000 </r>
        <r>    -0.0915     0.1993     0.0000     0.0000     0.0386     0.0000     0.0000     0.0000     0.0000     0.0000 </r>
        <r>    -0.0283     0.0000     0.0000     0.0000     0.0000     0.0000     0.0000     0.0000     0.0000     0.0000 </r>
        <r>     0.0349     0.0000     0.0000     0.0000     0.0000     0.0000     0.0000     0.0000     0.0000     0.0000 </r>
        <r>     0.0981     0.0000     0.0000     0.0000     0.0000     0.0000     0.0000     0.0000     0.0000     0.0000 </r>
        <r>     0.1613     0.0000     0.0000     0.0000     0.0000     0.0000     0.0000     0.0000     0.0000     0.0000 </r>
        <r>     0.2245     0.0000     0.0000     0.0000     0.0000     0.0000     0.0000     0.0000     0.0000     0.0000 </r>
        <r>     0.2877     0.0369     0.0000     0.0000     0.0106     0.0000     0.0000     0.0000     0.0000     0.0000 </r>
        <r>     0.3509     0.1951     0.0000     0.0000     0.0562     0.0000     0.0000     0.0000     0.0000     0.0000 </r>
        <r>     0.4141     0.0000     0.0000     0.0000     0.0000     0.0000     0.0000     0.0000     0.0000     0.0000 </r>
        <r>     0.4773     0.0000     0.1356     0.0000     0.0000     0.0000     0.0000     0.0000     0.0000     0.0000 </r>
        <r>     0.5405     0.0000     0.0000     0.0000     0.0000     0.0000     0.0000     0.0000     0.0000     0.0000 </r>
        <r>     0.6037     0.0023     0.0000     0.0000     0.0163     0.0000     0.0000     0.0000     0.0000     0.0000 </r>
        <r>     0.6669     0.0000     0.0000     0.0000     0.0000     0.0000     0.0000     0.0000     0.0000     0.0000 </r>
        <r>     0.7301     0.0000     0.0000     0.0000     0.0000     0.0000     0.0000     0.0000     0.0000     0.0000 </r>
        <r>     0.7933     0.0000     0.0000     0.0000     0.0000     0.0000     0.0000     0.0000     0.0000     0.0000 </r>
        <r>     0.8565     0.0000     0.0000     0.0000     0.0000     0.0000     0.0000     0.0000     0.0000     0.0000 </r>
        <r>     0.9197     0.0000     0.0000     0.0000     0.0000     0.0000     0.0000     0.0000     0.0000     0.0000 </r>
        <r>     0.9829     0.0000     0.0000     0.0000     0.0000     0.0000     0.0000     0.0000     0.0000     0.0000 </r>
        <r>     1.0462     0.0000     0.0000     0.0000     0.0000     0.0000     0.0000     0.0000     0.0000     0.0000 </r>
        <r>     1.1094     0.0000     0.0000     0.0000     0.0000     0.0000     0.0000     0.0000     0.0000     0.0000 </r>
        <r>     1.1726     0.0000     0.0000     0.0000     0.0000     0.0000     0.0000     0.0000     0.0000     0.0000 </r>
        <r>     1.2358     0.0000     0.0000     0.0000     0.0000     0.0000     0.0000     0.0000     0.0000     0.0000 </r>
        <r>     1.2990     0.0000     0.0000     0.0000     0.0000     0.0000     0.0000     0.0000     0.0000     0.0000 </r>
        <r>     1.3622     0.0000     0.0000     0.0000     0.0000     0.0000     0.0000     0.0000     0.0000     0.0000 </r>
        <r>     1.4254     0.0000     0.0000     0.0000     0.0000     0.0000     0.0000     0.0000     0.0000     0.0000 </r>
       </set>
      </set>
     </set>
    </array>
   </partial>
  </dos>
  <projected>
   <eigenvalues>
    <array>
     <dimension dim="1">band</dimension>
     <dimension dim="2">kpoint</dimension>
     <dimension dim="3">spin</dimension>
     <field>eigene</field>
     <field>occ</field>
     <set>
      <set comment="spin 1">
       <set comment="kpoint 1">
        <r>  -16.6736    1.0000 </r>
        <r>  -11.1081    1.0000 </r>
        <r>   -6.5835    1.0000 </r>
        <r>   -5.7163    1.0000 </r>
        <r>   -0.5052    0.0000 </r>
        <r>    0.1584    0.0000 </r>
        <r>    0.3221    0.0000 </r>
        <r>    0.4010    0.0000 </r>
       </set>
      </set>
      <set comment="spin 2">
       <set comment="kpoint 1">
        <r>  -14.8414    1.0000 </r>
        <r>  -10.6140    1.0000 </r>
        <r>   -3.0390    0.0000 </r>
        <r>   -2.4465    0.0000 </r>
        <r>   -0.1446    0.0000 </r>
        <r>    0.2948    0.0000 </r>
        <r>    0.4592    0.0000 </r>
        <r>    0.5635    0.0000 </r>
       </set>
      </set>
     </set>
    </array>
   </eigenvalues>
   <array>
    <dimension dim="1">ion</dimension>
    <dimension dim="2">band</dimension>
    <dimension dim="3">kpoint</dimension>
    <dimension dim="4">spin</dimension>
    <field>  s</field>
    <field> py</field>
    <field> pz</field>
    <field> px</field>
    <field>dxy</field>
    <field>dyz</field>
    <field>dz2</field>
    <field>dxz</field>
    <field>dx2</field>
    <set>
     <set comment="spin1">
      <set comment="kpoint 1">
       <set comment="band 1">
        <r>  0.1009  0.0081  0.0000  0.0009  0.0000  0.0000  0.0000  0.0000  0.0000 </r>
        <r>  0.1009  0.0081  0.0000  0.0009  0.0000  0.0000  0.0000  0.0000  0.0000 </r>
        <r>  0.4475  0.0000  0.0000  0.0078  0.0000  0.0000  0.0000  0.0000  0.0000 </r>
       </set>
       <set comment="band 2">
        <r>  0.1832  0.0065  0.0000  0.0024  0.0000  0.0000  0.0000  0.0000  0.0000 </r>
        <r>  0.1832  0.0065  0.0000  0.0024  0.0000  0.0000  0.0000  0.0000  0.0000 </r>
        <r>  0.0000  0.3238  0.0000  0.0000  0.0000  0.0000  0.0000  0.0000  0.0000 </r>
       </set>
       <set comment="band 3">
        <r>  0.0250  0.0018  0.0000  0.0035  0.0000  0.0000  0.0000  0.0000  0.0000 </r>
        <r>  0.0250  0.0018  0.0000  0.0035  0.0000  0.0000  0.0000  0.0000  0.0000 </r>
        <r>  0.0299  0.0000  0.0000  0.4022  0.0000  0.0000  0.0000  0.0000  0.0000 </r>
       </set>
       <set comment="band 4">
        <r>  0.0000  0.0000  0.0074  0.0000  0.0000  0.0000  0.0000  0.0000  0.0000 </r>
        <r>  0.0000  0.0000  0.0074  0.0000  0.0000  0.0000  0.0000  0.0000  0.0000 </r>
        <r>  0.0000  0.0000  0.4430  0.0000  0.0000  0.0000  0.0000  0.0000  0.0000 </r>
       </set>
       <set comment="band 5">
        <r>  0.0006  0.0032  0.0000  0.0002  0.0000  0.0000  0.0000  0.0000  0.0000 </r>
        <r>  0.0006  0.0032  0.0000  0.0002  0.0000  0.0000  0.0000  0.0000  0.0000 </r>
        <r>  0.0298  0.0000  0.0000  0.0040  0.0000  0.0000  0.0000  0.0000  0.0000 </r>
       </set>
       <set comment="band 6">
        <r>  0.0004  0.0011  0.0000  0.0000  0.0000  0.0000  0.0000  0.0000  0.0000 </r>
        <r>  0.0004  0.0011  0.0000  0.0000  0.0000  0.0000  0.0000  0.0000  0.0000 </r>
        <r>  0.0081  0.0000  0.0000  0.0020  0.0000  0.0000  0.0000  0.0000  0.0000 </r>
       </set>
       <set comment="band 7">
        <r>  0.0005  0.0013  0.0000  0.0003  0.0000  0.0000  0.0000  0.0000  0.0000 </r>
        <r>  0.0005  0.0013  0.0000  0.0003  0.0000  0.0000  0.0000  0.0000  0.0000 </r>
        <r>  0.0000  0.0137  0.0000  0.0000  0.0000  0.0000  0.0000  0.0000  0.0000 </r>
       </set>
       <set comment="band 8">
        <r>  0.0005  0.0000  0.0000  0.0000  0.0000  0.0000  0.0000  0.0000  0.0000 </r>
        <r>  0.0005  0.0000  0.0000  0.0000  0.0000  0.0000  0.0000  0.0000  0.0000 </r>
        <r>  0.0010  0.0000  0.0004  0.0076  0.0000  0.0000  0.0000  0.0000  0.0000 </r>
       </set>
      </set>
     </set>
     <set comment="spin2">
      <set comment="kpoint 1">
       <set comment="band 1">
        <r>  0.1255  0.0083  0.0000  0.0010  0.0000  0.0000  0.0000  0.0000  0.0000 </r>
        <r>  0.1255  0.0083  0.0000  0.0010  0.0000  0.0000  0.0000  0.0000  0.0000 </r>
        <r>  0.3804  0.0000  0.0000  0.0207  0.0000  0.0000  0.0000  0.0000  0.0000 </r>
       </set>
       <set comment="band 2">
        <r>  0.1911  0.0060  0.0000  0.0026  0.0000  0.0000  0.0000  0.0000  0.0000 </r>
        <r>  0.1911  0.0060  0.0000  0.0026  0.0000  0.0000  0.0000  0.0000  0.0000 </r>
        <r>  0.0000  0.3076  0.0000  0.0000  0.0000  0.0000  0.0000  0.0000  0.0000 </r>
       </set>
       <set comment="band 3">
        <r>  0.0149  0.0009  0.0000  0.0056  0.0000  0.0000  0.0000  0.0000  0.0000 </r>
        <r>  0.0149  0.0009  0.0000  0.0056  0.0000  0.0000  0.0000  0.0000  0.0000 </r>
        <r>  0.0442  0.0000  0.0000  0.2990  0.0000  0.0000  0.0000  0.0000  0.0000 </r>
       </set>
       <set comment="band 4">
        <r>  0.0000  0.0000  0.0093  0.0000  0.0000  0.0000  0.0000  0.0000  0.0000 </r>
        <r>  0.0000  0.0000  0.0093  0.0000  0.0000  0.0000  0.0000  0.0000  0.0000 </r>
        <r>  0.0000  0.0000  0.3348  0.0000  0.0000  0.0000  0.0000  0.0000  0.0000 </r>
       </set>
       <set comment="band 5">
        <r>  0.0001  0.0017  0.0000  0.0001  0.0000  0.0000  0.0000  0.0000  0.0000 </r>
        <r>  0.0001  0.0017  0.0000  0.0001  0.0000  0.0000  0.0000  0.0000  0.0000 </r>
        <r>  0.0136  0.0000  0.0000  0.0026  0.0000  0.0000  0.0000  0.0000  0.0000 </r>
       </set>
       <set comment="band 6">
        <r>  0.0002  0.0021  0.0000  0.0001  0.0000  0.0000  0.0000  0.0000  0.0000 </r>
        <r>  0.0002  0.0021  0.0000  0.0001  0.0000  0.0000  0.0000  0.0000  0.0000 </r>
        <r>  0.0147  0.0000  0.0000  0.0042  0.0000  0.0000  0.0000  0.0000  0.0000 </r>
       </set>
       <set comment="band 7">
        <r>  0.0005  0.0008  0.0000  0.0002  0.0000  0.0000  0.0000  0.0000  0.0000 </r>
        <r>  0.0005  0.0008  0.0000  0.0002  0.0000  0.0000  0.0000  0.0000  0.0000 </r>
        <r>  0.0000  0.0086  0.0000  0.0000  0.0000  0.0000  0.0000  0.0000  0.0000 </r>
       </set>
       <set comment="band 8">
        <r>  0.0003  0.0000  0.0000  0.0000  0.0000  0.0000  0.0000  0.0000  0.0000 </r>
        <r>  0.0003  0.0000  0.0000  0.0000  0.0000  0.0000  0.0000  0.0000  0.0000 </r>
        <r>  0.0001  0.0000  0.0000  0.0010  0.0000  0.0000  0.0000  0.0000  0.0000 </r>
       </set>
      </set>
     </set>
    </set>
   </array>
  </projected>
 </calculation>
 <structure name="finalpos" >
  <crystal>
   <varray name="basis" >
    <v>      16.00000000       0.00000000       0.00000000 </v>
    <v>       0.00000000      16.00000000       0.00000000 </v>
    <v>       0.00000000       0.00000000      16.00000000 </v>
   </varray>
   <i name="volume">   4096.00000000 </i>
   <varray name="rec_basis" >
    <v>       0.06250000       0.00000000       0.00000000 </v>
    <v>       0.00000000       0.06250000       0.00000000 </v>
    <v>       0.00000000       0.00000000       0.06250000 </v>
   </varray>
  </crystal>
  <varray name="positions" >
   <v>       0.51485159       0.43726867       0.50000000 </v>
   <v>       0.51485159       0.56273133       0.50000000 </v>
   <v>       0.48892437       0.50000000       0.50000000 </v>
  </varray>
 </structure>
</modeling>
