unknown system                          
           1
    16.000000    0.000000    0.000000
     0.000000   16.000000    0.000000
     0.000000    0.000000   16.000000
   H    C 
   2   1
Direct configuration=     1
   0.52115629  0.44589005  0.50000000
   0.52115629  0.55410995  0.50000000
   0.47631495  0.50000000  0.50000000
Direct configuration=     2
   0.51616582  0.44436134  0.50000000
   0.51616582  0.55563866  0.50000000
   0.48629591  0.50000000  0.50000000
Direct configuration=     3
   0.51779506  0.44486042  0.50000000
   0.51779506  0.55513958  0.50000000
   0.48303741  0.50000000  0.50000000
Direct configuration=     4
   0.51576065  0.43794935  0.50000000
   0.51576066  0.56205065  0.50000000
   0.48710623  0.50000000  0.50000000
Direct configuration=     5
   0.51567610  0.43766210  0.50000000
   0.51567610  0.56233790  0.50000000
   0.48727534  0.50000000  0.50000000
Direct configuration=     6
   0.51469085  0.43708918  0.50000000
   0.51469085  0.56291082  0.50000000
   0.48924584  0.50000000  0.50000000
Direct configuration=     7
   0.51482673  0.43716819  0.50000000
   0.51482673  0.56283180  0.50000000
   0.48897408  0.50000000  0.50000000
Direct configuration=     8
   0.51485952  0.43730075  0.50000000
   0.51485952  0.56269925  0.50000000
   0.48890849  0.50000000  0.50000000
Direct configuration=     9
   0.51485159  0.43726867  0.50000000
   0.51485159  0.56273133  0.50000000
   0.48892437  0.50000000  0.50000000
