       N       E                     dE             d eps       ncg     rms          rms(c)
DAV:   1     0.442682565722E+04    0.44268E+04   -0.24492E+05   760   0.116E+03
DAV:   2    -0.420616426568E+03   -0.48474E+04   -0.47497E+04   864   0.325E+02
DAV:   3    -0.976368976007E+03   -0.55575E+03   -0.55362E+03   816   0.119E+02
DAV:   4    -0.989391190819E+03   -0.13022E+02   -0.12980E+02   832   0.196E+01
DAV:   5    -0.989799025690E+03   -0.40783E+00   -0.40739E+00   840   0.313E+00    0.857E+01
DAV:   6    -0.873718829161E+03    0.11608E+03   -0.50743E+02   800   0.353E+01    0.397E+01
DAV:   7    -0.873202907822E+03    0.51592E+00   -0.16353E+01   920   0.601E+00    0.151E+01
DAV:   8    -0.872720399168E+03    0.48251E+00   -0.11569E+00   824   0.229E+00    0.602E+00
DAV:   9    -0.872582305550E+03    0.13809E+00   -0.44258E-01   832   0.142E+00    0.102E+00
DAV:  10    -0.872584529722E+03   -0.22242E-02   -0.88456E-02   816   0.620E-01    0.680E-01
DAV:  11    -0.872586181686E+03   -0.16520E-02   -0.22544E-02   784   0.310E-01    0.295E-01
DAV:  12    -0.872592819935E+03   -0.66382E-02   -0.75275E-03   784   0.204E-01    0.150E-01
DAV:  13    -0.872603350217E+03   -0.10530E-01   -0.40562E-03   808   0.162E-01    0.170E-01
DAV:  14    -0.872612508262E+03   -0.91580E-02   -0.21754E-03   800   0.105E-01    0.537E-02
DAV:  15    -0.872614208585E+03   -0.17003E-02   -0.40550E-04   808   0.449E-02    0.534E-02
DAV:  16    -0.872614622920E+03   -0.41433E-03   -0.98421E-05   816   0.222E-02    0.370E-02
DAV:  17    -0.872614963764E+03   -0.34084E-03   -0.91572E-05   800   0.175E-02    0.164E-02
DAV:  18    -0.872615335915E+03   -0.37215E-03   -0.34911E-05   784   0.105E-02    0.126E-02
DAV:  19    -0.872615353300E+03   -0.17385E-04   -0.88678E-06   752   0.677E-03    0.868E-03
DAV:  20    -0.872615361311E+03   -0.80115E-05   -0.27416E-06   576   0.363E-03    0.463E-03
DAV:  21    -0.872615378237E+03   -0.16926E-04   -0.26089E-06   656   0.303E-03    0.155E-03
DAV:  22    -0.872615382835E+03   -0.45980E-05   -0.69089E-07   504   0.183E-03    0.140E-03
DAV:  23    -0.872615383353E+03   -0.51829E-06   -0.21368E-07   520   0.911E-04
   1 F= -.87261538E+03 E0= -.87261538E+03  d E =-.872615E+03
       N       E                     dE             d eps       ncg     rms          rms(c)
DAV:   1    -0.872615282106E+03    0.10073E-03   -0.39440E-01   736   0.127E+00    0.234E-01
DAV:   2    -0.872616075885E+03   -0.79378E-03   -0.10831E-02   824   0.196E-01    0.969E-02
DAV:   3    -0.872615892740E+03    0.18315E-03   -0.32034E-04   824   0.495E-02    0.555E-02
DAV:   4    -0.872615819071E+03    0.73668E-04   -0.38835E-04   800   0.552E-02    0.212E-02
DAV:   5    -0.872615816121E+03    0.29503E-05   -0.11093E-04   832   0.252E-02    0.224E-02
DAV:   6    -0.872615811327E+03    0.47943E-05   -0.25299E-05   808   0.115E-02    0.131E-02
DAV:   7    -0.872615807299E+03    0.40273E-05   -0.17825E-06   576   0.958E-03    0.731E-03
DAV:   8    -0.872615805240E+03    0.20597E-05   -0.39693E-06   672   0.110E-02    0.253E-03
DAV:   9    -0.872615806267E+03   -0.10273E-05   -0.34129E-06   640   0.996E-03    0.186E-03
DAV:  10    -0.872615807015E+03   -0.74769E-06   -0.27312E-06   592   0.369E-03
   2 F= -.87261581E+03 E0= -.87261581E+03  d E =-.423661E-03
       N       E                     dE             d eps       ncg     rms          rms(c)
DAV:   1    -0.872616816843E+03   -0.10106E-02   -0.12515E-01   720   0.704E-01    0.174E-01
DAV:   2    -0.872617017334E+03   -0.20049E-03   -0.39419E-03   816   0.124E-01    0.618E-02
DAV:   3    -0.872616906577E+03    0.11076E-03   -0.18879E-04   808   0.418E-02    0.341E-02
DAV:   4    -0.872616855748E+03    0.50829E-04   -0.12708E-04   816   0.394E-02    0.115E-02
DAV:   5    -0.872616853780E+03    0.19682E-05   -0.73122E-05   832   0.218E-02    0.193E-02
DAV:   6    -0.872616849870E+03    0.39102E-05   -0.94561E-06   800   0.853E-03    0.122E-02
DAV:   7    -0.872616845858E+03    0.40114E-05   -0.54375E-07   520   0.816E-03    0.769E-03
DAV:   8    -0.872616843183E+03    0.26749E-05   -0.67833E-06   752   0.140E-02    0.255E-03
DAV:   9    -0.872616844025E+03   -0.84110E-06   -0.46667E-06   704   0.530E-03
   3 F= -.87261684E+03 E0= -.87261684E+03  d E =-.103701E-02
       N       E                     dE             d eps       ncg     rms          rms(c)
DAV:   1    -0.872617277356E+03   -0.43417E-03   -0.68727E-02   720   0.526E-01    0.922E-02
DAV:   2    -0.872617402363E+03   -0.12501E-03   -0.16744E-03   816   0.774E-02    0.314E-02
DAV:   3    -0.872617375714E+03    0.26649E-04   -0.46962E-05   816   0.213E-02    0.180E-02
DAV:   4    -0.872617361999E+03    0.13714E-04   -0.42450E-05   800   0.237E-02    0.587E-03
DAV:   5    -0.872617362575E+03   -0.57535E-06   -0.24786E-05   816   0.114E-02    0.101E-02
DAV:   6    -0.872617361963E+03    0.61128E-06   -0.19830E-06   544   0.314E-03
   4 F= -.87261736E+03 E0= -.87261736E+03  d E =-.517939E-03
       N       E                     dE             d eps       ncg     rms          rms(c)
DAV:   1    -0.872617729612E+03   -0.36704E-03   -0.80161E-02   720   0.563E-01    0.640E-02
DAV:   2    -0.872617884818E+03   -0.15521E-03   -0.17895E-03   800   0.773E-02    0.294E-02
DAV:   3    -0.872617873848E+03    0.10969E-04   -0.35784E-05   816   0.138E-02    0.181E-02
DAV:   4    -0.872617868618E+03    0.52301E-05   -0.36834E-05   800   0.161E-02    0.609E-03
DAV:   5    -0.872617868818E+03   -0.19970E-06   -0.84831E-06   816   0.650E-03
   5 F= -.87261787E+03 E0= -.87261787E+03  d E =-.506855E-03
       N       E                     dE             d eps       ncg     rms          rms(c)
DAV:   1    -0.872618172275E+03   -0.30366E-03   -0.50704E-02   720   0.451E-01    0.563E-02
DAV:   2    -0.872618268839E+03   -0.96564E-04   -0.11361E-03   808   0.619E-02    0.226E-02
DAV:   3    -0.872618261109E+03    0.77302E-05   -0.23532E-05   832   0.114E-02    0.139E-02
DAV:   4    -0.872618257533E+03    0.35764E-05   -0.22974E-05   808   0.136E-02    0.456E-03
DAV:   5    -0.872618257805E+03   -0.27256E-06   -0.61430E-06   768   0.532E-03
   6 F= -.87261826E+03 E0= -.87261826E+03  d E =-.388987E-03
       N       E                     dE             d eps       ncg     rms          rms(c)
DAV:   1    -0.872618619770E+03   -0.36224E-03   -0.12357E-01   720   0.700E-01    0.670E-02
DAV:   2    -0.872618854105E+03   -0.23433E-03   -0.26355E-03   784   0.930E-02    0.339E-02
DAV:   3    -0.872618841838E+03    0.12267E-04   -0.46942E-05   832   0.151E-02    0.216E-02
DAV:   4    -0.872618834638E+03    0.71993E-05   -0.49662E-05   808   0.197E-02    0.713E-03
DAV:   5    -0.872618835190E+03   -0.55182E-06   -0.12733E-05   800   0.752E-03    0.724E-03
DAV:   6    -0.872618834816E+03    0.37430E-06   -0.20890E-06   488   0.330E-03
   7 F= -.87261883E+03 E0= -.87261883E+03  d E =-.577011E-03
       N       E                     dE             d eps       ncg     rms          rms(c)
DAV:   1    -0.872619153257E+03   -0.31807E-03   -0.13196E-01   704   0.721E-01    0.798E-02
DAV:   2    -0.872619403962E+03   -0.25070E-03   -0.28775E-03   800   0.978E-02    0.364E-02
DAV:   3    -0.872619385691E+03    0.18270E-04   -0.54696E-05   832   0.177E-02    0.226E-02
DAV:   4    -0.872619376210E+03    0.94812E-05   -0.61067E-05   800   0.225E-02    0.766E-03
DAV:   5    -0.872619376762E+03   -0.55198E-06   -0.17658E-05   816   0.905E-03    0.831E-03
DAV:   6    -0.872619376331E+03    0.43097E-06   -0.20351E-06   488   0.315E-03
   8 F= -.87261938E+03 E0= -.87261938E+03  d E =-.541515E-03
       N       E                     dE             d eps       ncg     rms          rms(c)
DAV:   1    -0.872619450061E+03   -0.73299E-04   -0.10494E-02   720   0.202E-01    0.522E-02
DAV:   2    -0.872619465753E+03   -0.15692E-04   -0.30963E-04   832   0.342E-02    0.164E-02
DAV:   3    -0.872619457162E+03    0.85909E-05   -0.13777E-05   832   0.114E-02    0.895E-03
DAV:   4    -0.872619453714E+03    0.34478E-05   -0.11044E-05   800   0.108E-02    0.313E-03
DAV:   5    -0.872619453705E+03    0.86511E-08   -0.53062E-06   776   0.565E-03
   9 F= -.87261945E+03 E0= -.87261945E+03  d E =-.773740E-04
       N       E                     dE             d eps       ncg     rms          rms(c)
DAV:   1    -0.872619664277E+03   -0.21056E-03   -0.28812E-02   720   0.340E-01    0.436E-02
DAV:   2    -0.872619720355E+03   -0.56078E-04   -0.65987E-04   792   0.473E-02    0.182E-02
DAV:   3    -0.872619714736E+03    0.56193E-05   -0.13413E-05   832   0.956E-03    0.109E-02
DAV:   4    -0.872619711728E+03    0.30083E-05   -0.13139E-05   792   0.117E-02    0.323E-03
DAV:   5    -0.872619712029E+03   -0.30109E-06   -0.54924E-06   784   0.500E-03
  10 F= -.87261971E+03 E0= -.87261971E+03  d E =-.258323E-03
       N       E                     dE             d eps       ncg     rms          rms(c)
DAV:   1    -0.872619895888E+03   -0.18416E-03   -0.20570E-02   720   0.284E-01    0.337E-02
DAV:   2    -0.872619934046E+03   -0.38158E-04   -0.44970E-04   800   0.389E-02    0.148E-02
DAV:   3    -0.872619931395E+03    0.26512E-05   -0.95239E-06   832   0.687E-03    0.904E-03
DAV:   4    -0.872619930228E+03    0.11661E-05   -0.85069E-06   744   0.771E-03    0.290E-03
DAV:   5    -0.872619930302E+03   -0.73072E-07   -0.18291E-06   504   0.305E-03
  11 F= -.87261993E+03 E0= -.87261993E+03  d E =-.218273E-03
       N       E                     dE             d eps       ncg     rms          rms(c)
DAV:   1    -0.872620173193E+03   -0.24296E-03   -0.42001E-02   704   0.406E-01    0.397E-02
DAV:   2    -0.872620252624E+03   -0.79432E-04   -0.89561E-04   792   0.541E-02    0.199E-02
DAV:   3    -0.872620248524E+03    0.41001E-05   -0.16153E-05   824   0.893E-03    0.127E-02
DAV:   4    -0.872620246308E+03    0.22162E-05   -0.18249E-05   784   0.117E-02    0.447E-03
DAV:   5    -0.872620246396E+03   -0.88410E-07   -0.41832E-06   680   0.450E-03
  12 F= -.87262025E+03 E0= -.87262025E+03  d E =-.316095E-03
       N       E                     dE             d eps       ncg     rms          rms(c)
DAV:   1    -0.872620537547E+03   -0.29124E-03   -0.93863E-02   704   0.607E-01    0.571E-02
DAV:   2    -0.872620713922E+03   -0.17638E-03   -0.19741E-03   776   0.800E-02    0.292E-02
DAV:   3    -0.872620705680E+03    0.82417E-05   -0.34466E-05   824   0.128E-02    0.187E-02
DAV:   4    -0.872620701028E+03    0.46521E-05   -0.37860E-05   800   0.173E-02    0.638E-03
DAV:   5    -0.872620701410E+03   -0.38159E-06   -0.95717E-06   808   0.649E-03
  13 F= -.87262070E+03 E0= -.87262070E+03  d E =-.455014E-03
       N       E                     dE             d eps       ncg     rms          rms(c)
DAV:   1    -0.872620884600E+03   -0.18357E-03   -0.30988E-02   704   0.349E-01    0.441E-02
DAV:   2    -0.872620942664E+03   -0.58064E-04   -0.69388E-04   800   0.484E-02    0.183E-02
DAV:   3    -0.872620937614E+03    0.50500E-05   -0.14909E-05   832   0.964E-03    0.112E-02
DAV:   4    -0.872620935042E+03    0.25718E-05   -0.14637E-05   792   0.118E-02    0.381E-03
DAV:   5    -0.872620935216E+03   -0.17367E-06   -0.50364E-06   736   0.497E-03
  14 F= -.87262094E+03 E0= -.87262094E+03  d E =-.233806E-03
       N       E                     dE             d eps       ncg     rms          rms(c)
DAV:   1    -0.872621010122E+03   -0.75080E-04   -0.53938E-03   720   0.145E-01    0.303E-02
DAV:   2    -0.872621019993E+03   -0.98709E-05   -0.15373E-04   824   0.240E-02    0.109E-02
DAV:   3    -0.872621016948E+03    0.30446E-05   -0.61023E-06   824   0.744E-03    0.598E-03
DAV:   4    -0.872621015524E+03    0.14244E-05   -0.38253E-06   712   0.685E-03    0.187E-03
DAV:   5    -0.872621015490E+03    0.34015E-07   -0.20349E-06   568   0.380E-03
  15 F= -.87262102E+03 E0= -.87262102E+03  d E =-.802744E-04
       N       E                     dE             d eps       ncg     rms          rms(c)
DAV:   1    -0.872621214530E+03   -0.19901E-03   -0.29642E-02   712   0.342E-01    0.362E-02
DAV:   2    -0.872621270493E+03   -0.55963E-04   -0.63601E-04   784   0.457E-02    0.173E-02
DAV:   3    -0.872621266987E+03    0.35061E-05   -0.11567E-05   824   0.773E-03    0.108E-02
DAV:   4    -0.872621265246E+03    0.17409E-05   -0.13074E-05   784   0.101E-02    0.358E-03
DAV:   5    -0.872621265352E+03   -0.10571E-06   -0.33029E-06   600   0.395E-03
  16 F= -.87262127E+03 E0= -.87262127E+03  d E =-.249862E-03
       N       E                     dE             d eps       ncg     rms          rms(c)
DAV:   1    -0.872621427122E+03   -0.16188E-03   -0.19257E-02   704   0.274E-01    0.317E-02
DAV:   2    -0.872621462394E+03   -0.35271E-04   -0.41503E-04   792   0.372E-02    0.140E-02
DAV:   3    -0.872621459947E+03    0.24463E-05   -0.84886E-06   832   0.660E-03    0.866E-03
DAV:   4    -0.872621458791E+03    0.11565E-05   -0.82191E-06   752   0.791E-03    0.287E-03
DAV:   5    -0.872621458857E+03   -0.66291E-07   -0.19997E-06   536   0.314E-03
  17 F= -.87262146E+03 E0= -.87262146E+03  d E =-.193505E-03
       N       E                     dE             d eps       ncg     rms          rms(c)
DAV:   1    -0.872621662090E+03   -0.20330E-03   -0.34907E-02   704   0.368E-01    0.369E-02
DAV:   2    -0.872621726199E+03   -0.64109E-04   -0.72855E-04   776   0.488E-02    0.184E-02
DAV:   3    -0.872621722664E+03    0.35351E-05   -0.13382E-05   824   0.816E-03    0.115E-02
DAV:   4    -0.872621720844E+03    0.18201E-05   -0.14371E-05   768   0.105E-02    0.384E-03
DAV:   5    -0.872621720964E+03   -0.11943E-06   -0.35327E-06   672   0.407E-03
  18 F= -.87262172E+03 E0= -.87262172E+03  d E =-.262106E-03
       N       E                     dE             d eps       ncg     rms          rms(c)
DAV:   1    -0.872621957764E+03   -0.23692E-03   -0.63386E-02   704   0.497E-01    0.485E-02
DAV:   2    -0.872622075383E+03   -0.11762E-03   -0.13296E-03   776   0.657E-02    0.246E-02
DAV:   3    -0.872622069601E+03    0.57816E-05   -0.24111E-05   824   0.107E-02    0.156E-02
DAV:   4    -0.872622066540E+03    0.30618E-05   -0.25635E-05   800   0.138E-02    0.532E-03
DAV:   5    -0.872622066731E+03   -0.19117E-06   -0.62517E-06   768   0.541E-03
  19 F= -.87262207E+03 E0= -.87262207E+03  d E =-.345767E-03
       N       E                     dE             d eps       ncg     rms          rms(c)
DAV:   1    -0.872622008866E+03    0.57673E-04   -0.40251E-03   704   0.126E-01    0.253E-02
DAV:   2    -0.872622015803E+03   -0.69371E-05   -0.10692E-04   816   0.199E-02    0.902E-03
DAV:   3    -0.872622013442E+03    0.23615E-05   -0.37684E-06   752   0.613E-03    0.490E-03
DAV:   4    -0.872622012254E+03    0.11876E-05   -0.22630E-06   584   0.610E-03    0.122E-03
DAV:   5    -0.872622012263E+03   -0.82728E-08   -0.20219E-06   528   0.366E-03
  20 F= -.87262201E+03 E0= -.87262201E+03  d E =0.544682E-04
       N       E                     dE             d eps       ncg     rms          rms(c)
DAV:   1    -0.872622224135E+03   -0.21188E-03   -0.39861E-02   704   0.393E-01    0.364E-02
DAV:   2    -0.872622296458E+03   -0.72323E-04   -0.81219E-04   776   0.513E-02    0.197E-02
DAV:   3    -0.872622292830E+03    0.36285E-05   -0.14537E-05   824   0.814E-03    0.125E-02
DAV:   4    -0.872622290945E+03    0.18848E-05   -0.15615E-05   760   0.105E-02    0.402E-03
DAV:   5    -0.872622291057E+03   -0.11234E-06   -0.35113E-06   664   0.409E-03
  21 F= -.87262229E+03 E0= -.87262229E+03  d E =-.278795E-03
       N       E                     dE             d eps       ncg     rms          rms(c)
DAV:   1    -0.872622386871E+03   -0.95926E-04   -0.64732E-03   704   0.159E-01    0.219E-02
DAV:   2    -0.872622398826E+03   -0.11955E-04   -0.14643E-04   800   0.222E-02    0.855E-03
DAV:   3    -0.872622397739E+03    0.10873E-05   -0.31072E-06   616   0.433E-03    0.519E-03
DAV:   4    -0.872622397331E+03    0.40782E-06   -0.40230E-06   720   0.527E-03
  22 F= -.87262240E+03 E0= -.87262240E+03  d E =-.106274E-03
       N       E                     dE             d eps       ncg     rms          rms(c)
DAV:   1    -0.872622634258E+03   -0.23652E-03   -0.62388E-02   704   0.492E-01    0.468E-02
DAV:   2    -0.872622747578E+03   -0.11332E-03   -0.12814E-03   776   0.643E-02    0.248E-02
DAV:   3    -0.872622741906E+03    0.56729E-05   -0.22972E-05   824   0.104E-02    0.158E-02
DAV:   4    -0.872622739008E+03    0.28975E-05   -0.25461E-05   800   0.138E-02    0.524E-03
DAV:   5    -0.872622739217E+03   -0.20906E-06   -0.62072E-06   768   0.530E-03
  23 F= -.87262274E+03 E0= -.87262274E+03  d E =-.341886E-03
       N       E                     dE             d eps       ncg     rms          rms(c)
DAV:   1    -0.872622906641E+03   -0.16763E-03   -0.25299E-02   704   0.313E-01    0.343E-02
DAV:   2    -0.872622952895E+03   -0.46254E-04   -0.53509E-04   776   0.419E-02    0.159E-02
DAV:   3    -0.872622950152E+03    0.27429E-05   -0.10431E-05   824   0.738E-03    0.985E-03
DAV:   4    -0.872622948833E+03    0.13197E-05   -0.10584E-05   744   0.932E-03    0.335E-03
DAV:   5    -0.872622948928E+03   -0.94915E-07   -0.28046E-06   624   0.366E-03
  24 F= -.87262295E+03 E0= -.87262295E+03  d E =-.209710E-03
       N       E                     dE             d eps       ncg     rms          rms(c)
DAV:   1    -0.872622880569E+03    0.68264E-04   -0.42963E-03   704   0.131E-01    0.242E-02
DAV:   2    -0.872622888168E+03   -0.75989E-05   -0.10778E-04   816   0.198E-02    0.847E-03
DAV:   3    -0.872622886132E+03    0.20360E-05   -0.32562E-06   672   0.575E-03    0.469E-03
DAV:   4    -0.872622885047E+03    0.10848E-05   -0.23702E-06   584   0.617E-03    0.115E-03
DAV:   5    -0.872622885095E+03   -0.47534E-07   -0.19649E-06   512   0.342E-03
  25 F= -.87262289E+03 E0= -.87262289E+03  d E =0.638329E-04
       N       E                     dE             d eps       ncg     rms          rms(c)
DAV:   1    -0.872623002855E+03   -0.11781E-03   -0.94103E-03   704   0.192E-01    0.205E-02
DAV:   2    -0.872623020072E+03   -0.17217E-04   -0.19726E-04   776   0.255E-02    0.100E-02
DAV:   3    -0.872623018859E+03    0.12133E-05   -0.35893E-06   656   0.444E-03    0.622E-03
DAV:   4    -0.872623018258E+03    0.60073E-06   -0.41044E-06   712   0.571E-03
  26 F= -.87262302E+03 E0= -.87262302E+03  d E =-.133164E-03
       N       E                     dE             d eps       ncg     rms          rms(c)
DAV:   1    -0.872623253887E+03   -0.23503E-03   -0.74908E-02   712   0.537E-01    0.510E-02
DAV:   2    -0.872623388031E+03   -0.13414E-03   -0.15149E-03   776   0.698E-02    0.274E-02
DAV:   3    -0.872623381548E+03    0.64835E-05   -0.27352E-05   824   0.111E-02    0.174E-02
DAV:   4    -0.872623378605E+03    0.29428E-05   -0.30193E-05   784   0.147E-02    0.574E-03
DAV:   5    -0.872623378783E+03   -0.17826E-06   -0.68550E-06   800   0.560E-03
  27 F= -.87262338E+03 E0= -.87262338E+03  d E =-.360525E-03
       N       E                     dE             d eps       ncg     rms          rms(c)
DAV:   1    -0.872623394127E+03   -0.15522E-04   -0.21752E-03   704   0.909E-02    0.239E-02
DAV:   2    -0.872623396794E+03   -0.26668E-05   -0.63363E-05   832   0.155E-02    0.729E-03
DAV:   3    -0.872623394909E+03    0.18851E-05   -0.31133E-06   672   0.527E-03    0.395E-03
DAV:   4    -0.872623394167E+03    0.74201E-06   -0.25305E-06   632   0.475E-03
  28 F= -.87262339E+03 E0= -.87262339E+03  d E =-.153837E-04
       N       E                     dE             d eps       ncg     rms          rms(c)
DAV:   1    -0.872623547787E+03   -0.15288E-03   -0.19123E-02   704   0.272E-01    0.293E-02
DAV:   2    -0.872623582146E+03   -0.34359E-04   -0.39788E-04   776   0.361E-02    0.143E-02
DAV:   3    -0.872623579816E+03    0.23303E-05   -0.77627E-06   816   0.628E-03    0.881E-03
DAV:   4    -0.872623578674E+03    0.11422E-05   -0.76004E-06   736   0.751E-03    0.267E-03
DAV:   5    -0.872623578750E+03   -0.76099E-07   -0.19509E-06   536   0.309E-03
  29 F= -.87262358E+03 E0= -.87262358E+03  d E =-.184583E-03
       N       E                     dE             d eps       ncg     rms          rms(c)
DAV:   1    -0.872623688262E+03   -0.10959E-03   -0.24417E-02   704   0.311E-01    0.485E-02
DAV:   2    -0.872623733829E+03   -0.45567E-04   -0.57743E-04   808   0.448E-02    0.178E-02
DAV:   3    -0.872623726827E+03    0.70018E-05   -0.13912E-05   832   0.111E-02    0.103E-02
DAV:   4    -0.872623722891E+03    0.39360E-05   -0.12073E-05   776   0.131E-02    0.309E-03
DAV:   5    -0.872623723167E+03   -0.27585E-06   -0.75891E-06   816   0.612E-03
  30 F= -.87262372E+03 E0= -.87262372E+03  d E =-.144417E-03
       N       E                     dE             d eps       ncg     rms          rms(c)
DAV:   1    -0.872623829833E+03   -0.10694E-03   -0.67091E-03   704   0.161E-01    0.311E-02
DAV:   2    -0.872623841374E+03   -0.11540E-04   -0.17368E-04   824   0.252E-02    0.114E-02
DAV:   3    -0.872623838570E+03    0.28040E-05   -0.64324E-06   824   0.679E-03    0.639E-03
DAV:   4    -0.872623837456E+03    0.11138E-05   -0.41309E-06   744   0.591E-03    0.190E-03
DAV:   5    -0.872623837471E+03   -0.14617E-07   -0.13799E-06   512   0.306E-03
  31 F= -.87262384E+03 E0= -.87262384E+03  d E =-.114304E-03
       N       E                     dE             d eps       ncg     rms          rms(c)
DAV:   1    -0.872624024207E+03   -0.18675E-03   -0.41179E-02   704   0.398E-01    0.389E-02
DAV:   2    -0.872624097617E+03   -0.73410E-04   -0.83140E-04   776   0.518E-02    0.204E-02
DAV:   3    -0.872624093554E+03    0.40634E-05   -0.14773E-05   824   0.844E-03    0.128E-02
DAV:   4    -0.872624091594E+03    0.19591E-05   -0.16559E-05   776   0.112E-02    0.412E-03
DAV:   5    -0.872624091700E+03   -0.10549E-06   -0.42407E-06   688   0.451E-03
  32 F= -.87262409E+03 E0= -.87262409E+03  d E =-.254229E-03
       N       E                     dE             d eps       ncg     rms          rms(c)
DAV:   1    -0.872624162728E+03   -0.71133E-04   -0.37748E-03   704   0.121E-01    0.201E-02
DAV:   2    -0.872624169656E+03   -0.69279E-05   -0.93036E-05   800   0.180E-02    0.727E-03
DAV:   3    -0.872624168651E+03    0.10050E-05   -0.24267E-06   576   0.418E-03    0.429E-03
DAV:   4    -0.872624168213E+03    0.43769E-06   -0.26734E-06   608   0.481E-03
  33 F= -.87262417E+03 E0= -.87262417E+03  d E =-.765130E-04
       N       E                     dE             d eps       ncg     rms          rms(c)
DAV:   1    -0.872624349887E+03   -0.18124E-03   -0.32349E-02   704   0.351E-01    0.314E-02
DAV:   2    -0.872624407197E+03   -0.57310E-04   -0.64356E-04   768   0.452E-02    0.180E-02
DAV:   3    -0.872624404630E+03    0.25671E-05   -0.10994E-05   808   0.690E-03    0.115E-02
DAV:   4    -0.872624403464E+03    0.11666E-05   -0.13053E-05   744   0.957E-03    0.379E-03
DAV:   5    -0.872624403526E+03   -0.62333E-07   -0.28070E-06   624   0.359E-03
  34 F= -.87262440E+03 E0= -.87262440E+03  d E =-.235313E-03
       N       E                     dE             d eps       ncg     rms          rms(c)
DAV:   1    -0.872624508544E+03   -0.10508E-03   -0.86947E-03   704   0.182E-01    0.185E-02
DAV:   2    -0.872624524389E+03   -0.15845E-04   -0.17922E-04   776   0.240E-02    0.925E-03
DAV:   3    -0.872624523671E+03    0.71735E-06   -0.30585E-06   616   0.390E-03
  35 F= -.87262452E+03 E0= -.87262452E+03  d E =-.120146E-03
       N       E                     dE             d eps       ncg     rms          rms(c)
DAV:   1    -0.872624578287E+03   -0.53898E-04   -0.19018E-03   712   0.849E-02    0.827E-03
DAV:   2    -0.872624581028E+03   -0.27412E-05   -0.32979E-05   776   0.103E-02    0.452E-03
DAV:   3    -0.872624580945E+03    0.82939E-07   -0.93806E-07   488   0.201E-03
  36 F= -.87262458E+03 E0= -.87262458E+03  d E =-.572735E-04
       N       E                     dE             d eps       ncg     rms          rms(c)
DAV:   1    -0.872624819615E+03   -0.23859E-03   -0.92964E-02   712   0.595E-01    0.528E-02
DAV:   2    -0.872624983538E+03   -0.16392E-03   -0.18356E-03   776   0.761E-02    0.309E-02
DAV:   3    -0.872624976167E+03    0.73713E-05   -0.31167E-05   816   0.116E-02    0.198E-02
DAV:   4    -0.872624973018E+03    0.31491E-05   -0.38454E-05   776   0.162E-02    0.658E-03
DAV:   5    -0.872624973109E+03   -0.90673E-07   -0.82588E-06   792   0.618E-03
  37 F= -.87262497E+03 E0= -.87262497E+03  d E =-.392164E-03
       N       E                     dE             d eps       ncg     rms          rms(c)
DAV:   1    -0.872624547726E+03    0.42529E-03   -0.10095E+00   712   0.196E+00    0.172E-01
DAV:   2    -0.872626335109E+03   -0.17874E-02   -0.19907E-02   768   0.251E-01    0.995E-02
DAV:   3    -0.872626256936E+03    0.78173E-04   -0.33458E-04   816   0.379E-02    0.638E-02
DAV:   4    -0.872626221508E+03    0.35429E-04   -0.40506E-04   776   0.532E-02    0.212E-02
DAV:   5    -0.872626223340E+03   -0.18328E-05   -0.88984E-05   808   0.199E-02    0.205E-02
DAV:   6    -0.872626219865E+03    0.34750E-05   -0.24800E-05   800   0.108E-02    0.101E-02
DAV:   7    -0.872626218656E+03    0.12093E-05   -0.57120E-06   792   0.530E-03    0.381E-03
DAV:   8    -0.872626218855E+03   -0.19909E-06   -0.23461E-06   576   0.345E-03
  38 F= -.87262622E+03 E0= -.87262622E+03  d E =-.124575E-02
       N       E                     dE             d eps       ncg     rms          rms(c)
DAV:   1    -0.872625895729E+03    0.32293E-03   -0.84903E-01   712   0.180E+00    0.156E-01
DAV:   2    -0.872627389167E+03   -0.14934E-02   -0.16592E-02   768   0.229E-01    0.915E-02
DAV:   3    -0.872627320385E+03    0.68782E-04   -0.27398E-04   816   0.341E-02    0.585E-02
DAV:   4    -0.872627288583E+03    0.31802E-04   -0.32982E-04   776   0.477E-02    0.183E-02
DAV:   5    -0.872627290508E+03   -0.19254E-05   -0.74178E-05   808   0.180E-02    0.179E-02
DAV:   6    -0.872627287939E+03    0.25694E-05   -0.18610E-05   800   0.932E-03    0.900E-03
DAV:   7    -0.872627286952E+03    0.98671E-06   -0.42996E-06   672   0.471E-03
  39 F= -.87262729E+03 E0= -.87262729E+03  d E =-.106810E-02
       N       E                     dE             d eps       ncg     rms          rms(c)
DAV:   1    -0.872627427492E+03   -0.13955E-03   -0.24684E-01   704   0.971E-01    0.846E-02
DAV:   2    -0.872627866213E+03   -0.43872E-03   -0.48636E-03   768   0.124E-01    0.495E-02
DAV:   3    -0.872627845513E+03    0.20700E-04   -0.77627E-05   808   0.184E-02    0.316E-02
DAV:   4    -0.872627836180E+03    0.93328E-05   -0.10040E-04   776   0.263E-02    0.101E-02
DAV:   5    -0.872627836646E+03   -0.46659E-06   -0.22942E-05   808   0.100E-02    0.998E-03
DAV:   6    -0.872627835867E+03    0.77945E-06   -0.48291E-06   720   0.473E-03
  40 F= -.87262784E+03 E0= -.87262784E+03  d E =-.548915E-03
       N       E                     dE             d eps       ncg     rms          rms(c)
DAV:   1    -0.872628009314E+03   -0.17267E-03   -0.92375E-02   704   0.592E-01    0.589E-02
DAV:   2    -0.872628175155E+03   -0.16584E-03   -0.18777E-03   776   0.775E-02    0.317E-02
DAV:   3    -0.872628165940E+03    0.92153E-05   -0.32521E-05   816   0.128E-02    0.199E-02
DAV:   4    -0.872628162252E+03    0.36881E-05   -0.42518E-05   776   0.177E-02    0.690E-03
DAV:   5    -0.872628162360E+03   -0.10852E-06   -0.10366E-05   808   0.692E-03    0.678E-03
DAV:   6    -0.872628162007E+03    0.35382E-06   -0.16919E-06   496   0.290E-03
  41 F= -.87262816E+03 E0= -.87262816E+03  d E =-.326140E-03
       N       E                     dE             d eps       ncg     rms          rms(c)
DAV:   1    -0.872628077668E+03    0.84692E-04   -0.52836E-01   704   0.142E+00    0.128E-01
DAV:   2    -0.872629003909E+03   -0.92624E-03   -0.10339E-02   768   0.181E-01    0.735E-02
DAV:   3    -0.872628957394E+03    0.46515E-04   -0.17130E-04   808   0.273E-02    0.463E-02
DAV:   4    -0.872628936590E+03    0.20804E-04   -0.20032E-04   776   0.372E-02    0.138E-02
DAV:   5    -0.872628937955E+03   -0.13649E-05   -0.46363E-05   808   0.142E-02    0.137E-02
DAV:   6    -0.872628936503E+03    0.14520E-05   -0.99028E-06   792   0.675E-03    0.727E-03
DAV:   7    -0.872628935846E+03    0.65705E-06   -0.25690E-06   592   0.385E-03
  42 F= -.87262894E+03 E0= -.87262894E+03  d E =-.773839E-03
       N       E                     dE             d eps       ncg     rms          rms(c)
DAV:   1    -0.872627599854E+03    0.13366E-02   -0.15900E+00   712   0.246E+00    0.214E-01
DAV:   2    -0.872630385947E+03   -0.27861E-02   -0.30971E-02   768   0.313E-01    0.127E-01
DAV:   3    -0.872630255060E+03    0.13089E-03   -0.50920E-04   816   0.467E-02    0.809E-02
DAV:   4    -0.872630198026E+03    0.57033E-04   -0.64345E-04   776   0.662E-02    0.260E-02
DAV:   5    -0.872630200645E+03   -0.26191E-05   -0.14095E-04   808   0.250E-02    0.253E-02
DAV:   6    -0.872630195430E+03    0.52154E-05   -0.36534E-05   800   0.131E-02    0.127E-02
DAV:   7    -0.872630193467E+03    0.19630E-05   -0.91600E-06   800   0.677E-03    0.465E-03
DAV:   8    -0.872630193879E+03   -0.41228E-06   -0.38732E-06   688   0.415E-03
  43 F= -.87263019E+03 E0= -.87263019E+03  d E =-.125803E-02
       N       E                     dE             d eps       ncg     rms          rms(c)
DAV:   1    -0.872629965350E+03    0.22812E-03   -0.44904E-02   712   0.417E-01    0.391E-02
DAV:   2    -0.872630048145E+03   -0.82795E-04   -0.93267E-04   776   0.548E-02    0.208E-02
DAV:   3    -0.872630044147E+03    0.39976E-05   -0.16792E-05   816   0.875E-03    0.133E-02
DAV:   4    -0.872630042038E+03    0.21097E-05   -0.18515E-05   768   0.117E-02    0.458E-03
DAV:   5    -0.872630042168E+03   -0.13039E-06   -0.41911E-06   664   0.440E-03
  44 F= -.87263004E+03 E0= -.87263004E+03  d E =0.151711E-03
       N       E                     dE             d eps       ncg     rms          rms(c)
DAV:   1    -0.872630169955E+03   -0.12792E-03   -0.19095E-01   712   0.851E-01    0.745E-02
DAV:   2    -0.872630499430E+03   -0.32948E-03   -0.36800E-03   760   0.108E-01    0.446E-02
DAV:   3    -0.872630482999E+03    0.16431E-04   -0.60913E-05   800   0.160E-02    0.283E-02
DAV:   4    -0.872630475657E+03    0.73417E-05   -0.73603E-05   776   0.223E-02    0.838E-03
DAV:   5    -0.872630476083E+03   -0.42564E-06   -0.16485E-05   808   0.850E-03    0.829E-03
DAV:   6    -0.872630475541E+03    0.54216E-06   -0.37057E-06   664   0.419E-03
  45 F= -.87263048E+03 E0= -.87263048E+03  d E =-.433373E-03
       N       E                     dE             d eps       ncg     rms          rms(c)
DAV:   1    -0.872630585444E+03   -0.10936E-03   -0.27538E-02   704   0.325E-01    0.417E-02
DAV:   2    -0.872630632964E+03   -0.47520E-04   -0.57592E-04   784   0.441E-02    0.186E-02
DAV:   3    -0.872630628141E+03    0.48229E-05   -0.12449E-05   832   0.848E-03    0.110E-02
DAV:   4    -0.872630625875E+03    0.22662E-05   -0.11148E-05   776   0.948E-03    0.295E-03
DAV:   5    -0.872630626018E+03   -0.14297E-06   -0.35970E-06   656   0.412E-03
  46 F= -.87263063E+03 E0= -.87263063E+03  d E =-.150477E-03
       N       E                     dE             d eps       ncg     rms          rms(c)
DAV:   1    -0.872629746172E+03    0.87970E-03   -0.12029E+00   712   0.213E+00    0.190E-01
DAV:   2    -0.872631817272E+03   -0.20711E-02   -0.23187E-02   768   0.271E-01    0.112E-01
DAV:   3    -0.872631717547E+03    0.99726E-04   -0.38986E-04   816   0.408E-02    0.709E-02
DAV:   4    -0.872631676647E+03    0.40900E-04   -0.46958E-04   768   0.564E-02    0.220E-02
DAV:   5    -0.872631678825E+03   -0.21780E-05   -0.10301E-04   808   0.214E-02    0.214E-02
DAV:   6    -0.872631675114E+03    0.37106E-05   -0.26539E-05   800   0.111E-02    0.108E-02
DAV:   7    -0.872631673719E+03    0.13953E-05   -0.63590E-06   808   0.560E-03    0.399E-03
DAV:   8    -0.872631673967E+03   -0.24806E-06   -0.24121E-06   592   0.343E-03
  47 F= -.87263167E+03 E0= -.87263167E+03  d E =-.104795E-02
       N       E                     dE             d eps       ncg     rms          rms(c)
DAV:   1    -0.872629962854E+03    0.17109E-02   -0.62065E-01   712   0.153E+00    0.135E-01
DAV:   2    -0.872631034815E+03   -0.10720E-02   -0.12003E-02   752   0.195E-01    0.796E-02
DAV:   3    -0.872630984134E+03    0.50681E-04   -0.20415E-04   808   0.292E-02    0.505E-02
DAV:   4    -0.872630961678E+03    0.22457E-04   -0.23397E-04   776   0.400E-02    0.155E-02
DAV:   5    -0.872630963169E+03   -0.14914E-05   -0.52120E-05   808   0.151E-02    0.151E-02
DAV:   6    -0.872630961304E+03    0.18644E-05   -0.13538E-05   792   0.798E-03    0.756E-03
DAV:   7    -0.872630960602E+03    0.70244E-06   -0.28778E-06   616   0.389E-03
  48 F= -.87263096E+03 E0= -.87263096E+03  d E =0.713365E-03
       N       E                     dE             d eps       ncg     rms          rms(c)
DAV:   1    -0.872631111335E+03   -0.15003E-03   -0.16131E-01   704   0.779E-01    0.723E-02
DAV:   2    -0.872631384031E+03   -0.27270E-03   -0.30943E-03   768   0.992E-02    0.420E-02
DAV:   3    -0.872631370374E+03    0.13657E-04   -0.54990E-05   800   0.153E-02    0.263E-02
DAV:   4    -0.872631364769E+03    0.56049E-05   -0.59828E-05   776   0.201E-02    0.785E-03
DAV:   5    -0.872631365081E+03   -0.31114E-06   -0.13130E-05   808   0.770E-03    0.753E-03
DAV:   6    -0.872631364628E+03    0.45307E-06   -0.34026E-06   672   0.402E-03
  49 F= -.87263136E+03 E0= -.87263136E+03  d E =-.404025E-03
       N       E                     dE             d eps       ncg     rms          rms(c)
DAV:   1    -0.872631401639E+03   -0.36559E-04   -0.17893E-03   704   0.833E-02    0.164E-02
DAV:   2    -0.872631404872E+03   -0.32331E-05   -0.45049E-05   816   0.126E-02    0.560E-03
DAV:   3    -0.872631404183E+03    0.68980E-06   -0.12049E-06   520   0.300E-03
  50 F= -.87263140E+03 E0= -.87263140E+03  d E =-.395550E-04
       N       E                     dE             d eps       ncg     rms          rms(c)
DAV:   1    -0.872631512396E+03   -0.10752E-03   -0.15748E-02   712   0.243E-01    0.233E-02
DAV:   2    -0.872631537910E+03   -0.25515E-04   -0.29263E-04   768   0.306E-02    0.135E-02
DAV:   3    -0.872631536487E+03    0.14229E-05   -0.52591E-06   720   0.480E-03    0.832E-03
DAV:   4    -0.872631535957E+03    0.53050E-06   -0.57629E-06   720   0.628E-03
  51 F= -.87263154E+03 E0= -.87263154E+03  d E =-.131774E-03
       N       E                     dE             d eps       ncg     rms          rms(c)
DAV:   1    -0.872631619534E+03   -0.83047E-04   -0.83831E-03   704   0.177E-01    0.234E-02
DAV:   2    -0.872631633811E+03   -0.14276E-04   -0.17696E-04   784   0.243E-02    0.113E-02
DAV:   3    -0.872631632472E+03    0.13389E-05   -0.41215E-06   712   0.489E-03    0.675E-03
DAV:   4    -0.872631631958E+03    0.51362E-06   -0.46419E-06   720   0.567E-03
  52 F= -.87263163E+03 E0= -.87263163E+03  d E =-.960016E-04
       N       E                     dE             d eps       ncg     rms          rms(c)
DAV:   1    -0.872631830717E+03   -0.19824E-03   -0.15200E-01   704   0.750E-01    0.748E-02
DAV:   2    -0.872632078563E+03   -0.24785E-03   -0.28473E-03   768   0.953E-02    0.442E-02
DAV:   3    -0.872632064000E+03    0.14563E-04   -0.51507E-05   808   0.154E-02    0.271E-02
DAV:   4    -0.872632059855E+03    0.41447E-05   -0.63075E-05   768   0.203E-02    0.816E-03
DAV:   5    -0.872632059894E+03   -0.39196E-07   -0.12973E-05   816   0.775E-03    0.763E-03
DAV:   6    -0.872632059425E+03    0.46980E-06   -0.31762E-06   640   0.388E-03
  53 F= -.87263206E+03 E0= -.87263206E+03  d E =-.427466E-03
       N       E                     dE             d eps       ncg     rms          rms(c)
DAV:   1    -0.872631609454E+03    0.45044E-03   -0.86946E-02   704   0.567E-01    0.548E-02
DAV:   2    -0.872631749678E+03   -0.14022E-03   -0.16064E-03   768   0.715E-02    0.337E-02
DAV:   3    -0.872631741281E+03    0.83967E-05   -0.28735E-05   808   0.113E-02    0.207E-02
DAV:   4    -0.872631739116E+03    0.21654E-05   -0.36020E-05   752   0.149E-02    0.617E-03
DAV:   5    -0.872631739077E+03    0.39319E-07   -0.69907E-06   776   0.576E-03
  54 F= -.87263174E+03 E0= -.87263174E+03  d E =0.320348E-03
       N       E                     dE             d eps       ncg     rms          rms(c)
DAV:   1    -0.872631885750E+03   -0.14663E-03   -0.38943E-02   704   0.382E-01    0.367E-02
DAV:   2    -0.872631947539E+03   -0.61789E-04   -0.71409E-04   768   0.480E-02    0.220E-02
DAV:   3    -0.872631942998E+03    0.45413E-05   -0.12748E-05   824   0.747E-03    0.134E-02
DAV:   4    -0.872631941232E+03    0.17654E-05   -0.13874E-05   768   0.947E-03    0.304E-03
DAV:   5    -0.872631941383E+03   -0.15028E-06   -0.32021E-06   664   0.368E-03
  55 F= -.87263194E+03 E0= -.87263194E+03  d E =-.202306E-03
       N       E                     dE             d eps       ncg     rms          rms(c)
DAV:   1    -0.872632005353E+03   -0.64120E-04   -0.45695E-03   704   0.131E-01    0.193E-02
DAV:   2    -0.872632013327E+03   -0.79748E-05   -0.10224E-04   792   0.187E-02    0.837E-03
DAV:   3    -0.872632012447E+03    0.88009E-06   -0.23683E-06   584   0.395E-03
  56 F= -.87263201E+03 E0= -.87263201E+03  d E =-.710648E-04
       N       E                     dE             d eps       ncg     rms          rms(c)
DAV:   1    -0.872632086381E+03   -0.73053E-04   -0.81645E-03   704   0.176E-01    0.239E-02
DAV:   2    -0.872632100159E+03   -0.13779E-04   -0.17361E-04   800   0.242E-02    0.112E-02
DAV:   3    -0.872632098677E+03    0.14829E-05   -0.41361E-06   720   0.475E-03    0.672E-03
DAV:   4    -0.872632098080E+03    0.59682E-06   -0.45808E-06   712   0.542E-03
  57 F= -.87263210E+03 E0= -.87263210E+03  d E =-.856325E-04
       N       E                     dE             d eps       ncg     rms          rms(c)
DAV:   1    -0.872632136126E+03   -0.37450E-04   -0.20734E-03   704   0.881E-02    0.170E-02
DAV:   2    -0.872632139322E+03   -0.31960E-05   -0.49175E-05   808   0.131E-02    0.625E-03
DAV:   3    -0.872632138487E+03    0.83483E-06   -0.15254E-06   552   0.324E-03
  58 F= -.87263214E+03 E0= -.87263214E+03  d E =-.404077E-04
       N       E                     dE             d eps       ncg     rms          rms(c)
DAV:   1    -0.872632232555E+03   -0.93233E-04   -0.12396E-02   704   0.215E-01    0.213E-02
DAV:   2    -0.872632252421E+03   -0.19866E-04   -0.22906E-04   768   0.270E-02    0.123E-02
DAV:   3    -0.872632251230E+03    0.11917E-05   -0.41005E-06   696   0.424E-03    0.746E-03
DAV:   4    -0.872632250812E+03    0.41751E-06   -0.44259E-06   688   0.545E-03
  59 F= -.87263225E+03 E0= -.87263225E+03  d E =-.112325E-03
       N       E                     dE             d eps       ncg     rms          rms(c)
DAV:   1    -0.872632313650E+03   -0.62420E-04   -0.39588E-03   704   0.120E-01    0.158E-02
DAV:   2    -0.872632320499E+03   -0.68489E-05   -0.85594E-05   776   0.168E-02    0.838E-03
DAV:   3    -0.872632319870E+03    0.62849E-06   -0.18653E-06   568   0.334E-03
  60 F= -.87263232E+03 E0= -.87263232E+03  d E =-.690583E-04
       N       E                     dE             d eps       ncg     rms          rms(c)
DAV:   1    -0.872632375421E+03   -0.54922E-04   -0.37158E-03   704   0.117E-01    0.160E-02
DAV:   2    -0.872632381135E+03   -0.57139E-05   -0.73373E-05   800   0.157E-02    0.733E-03
DAV:   3    -0.872632380550E+03    0.58486E-06   -0.19259E-06   592   0.316E-03
  61 F= -.87263238E+03 E0= -.87263238E+03  d E =-.606797E-04
       N       E                     dE             d eps       ncg     rms          rms(c)
DAV:   1    -0.872632403953E+03   -0.22818E-04   -0.75033E-04   704   0.530E-02    0.101E-02
DAV:   2    -0.872632405143E+03   -0.11903E-05   -0.17522E-05   808   0.768E-03    0.387E-03
DAV:   3    -0.872632404858E+03    0.28526E-06   -0.50708E-07   480   0.192E-03
  62 F= -.87263240E+03 E0= -.87263240E+03  d E =-.243079E-04
       N       E                     dE             d eps       ncg     rms          rms(c)
DAV:   1    -0.872632492252E+03   -0.87109E-04   -0.15502E-02   704   0.241E-01    0.294E-02
DAV:   2    -0.872632517786E+03   -0.25534E-04   -0.30351E-04   800   0.316E-02    0.143E-02
DAV:   3    -0.872632515253E+03    0.25332E-05   -0.59197E-06   704   0.571E-03    0.833E-03
DAV:   4    -0.872632514197E+03    0.10565E-05   -0.64229E-06   752   0.700E-03    0.211E-03
DAV:   5    -0.872632514264E+03   -0.66873E-07   -0.17520E-06   536   0.283E-03
  63 F= -.87263251E+03 E0= -.87263251E+03  d E =-.109406E-03
       N       E                     dE             d eps       ncg     rms          rms(c)
DAV:   1    -0.872632553490E+03   -0.39294E-04   -0.15484E-03   704   0.757E-02    0.155E-02
DAV:   2    -0.872632556287E+03   -0.27969E-05   -0.42985E-05   800   0.122E-02    0.612E-03
DAV:   3    -0.872632555495E+03    0.79245E-06   -0.12951E-06   520   0.312E-03
  64 F= -.87263256E+03 E0= -.87263256E+03  d E =-.412311E-04
       N       E                     dE             d eps       ncg     rms          rms(c)
DAV:   1    -0.872632650649E+03   -0.94362E-04   -0.12565E-02   704   0.215E-01    0.212E-02
DAV:   2    -0.872632671036E+03   -0.20387E-04   -0.23633E-04   776   0.275E-02    0.127E-02
DAV:   3    -0.872632669865E+03    0.11704E-05   -0.43215E-06   712   0.443E-03    0.786E-03
DAV:   4    -0.872632669491E+03    0.37473E-06   -0.55771E-06   704   0.599E-03
  65 F= -.87263267E+03 E0= -.87263267E+03  d E =-.113996E-03
       N       E                     dE             d eps       ncg     rms          rms(c)
DAV:   1    -0.872632748995E+03   -0.79130E-04   -0.83009E-03   704   0.176E-01    0.220E-02
DAV:   2    -0.872632762698E+03   -0.13703E-04   -0.16743E-04   784   0.236E-02    0.112E-02
DAV:   3    -0.872632761579E+03    0.11192E-05   -0.39635E-06   680   0.453E-03    0.657E-03
DAV:   4    -0.872632761174E+03    0.40456E-06   -0.32427E-06   608   0.480E-03
  66 F= -.87263276E+03 E0= -.87263276E+03  d E =-.916839E-04
       N       E                     dE             d eps       ncg     rms          rms(c)
DAV:   1    -0.872632937185E+03   -0.17561E-03   -0.16977E-01   712   0.787E-01    0.803E-02
DAV:   2    -0.872633206174E+03   -0.26899E-03   -0.31054E-03   768   0.991E-02    0.472E-02
DAV:   3    -0.872633189326E+03    0.16849E-04   -0.56265E-05   816   0.160E-02    0.284E-02
DAV:   4    -0.872633184968E+03    0.43576E-05   -0.64392E-05   768   0.206E-02    0.770E-03
DAV:   5    -0.872633185246E+03   -0.27836E-06   -0.13960E-05   816   0.780E-03    0.757E-03
DAV:   6    -0.872633184807E+03    0.43942E-06   -0.23947E-06   560   0.341E-03
  67 F= -.87263318E+03 E0= -.87263318E+03  d E =-.423633E-03
       N       E                     dE             d eps       ncg     rms          rms(c)
DAV:   1    -0.872632651019E+03    0.53423E-03   -0.12298E-01   704   0.670E-01    0.667E-02
DAV:   2    -0.872632843208E+03   -0.19219E-03   -0.22193E-03   752   0.837E-02    0.401E-02
DAV:   3    -0.872632830974E+03    0.12234E-04   -0.40381E-05   808   0.132E-02    0.240E-02
DAV:   4    -0.872632827797E+03    0.31766E-05   -0.42993E-05   776   0.165E-02    0.601E-03
DAV:   5    -0.872632828060E+03   -0.26284E-06   -0.91749E-06   792   0.629E-03
  68 F= -.87263283E+03 E0= -.87263283E+03  d E =0.356747E-03
       N       E                     dE             d eps       ncg     rms          rms(c)
DAV:   1    -0.872632951561E+03   -0.12376E-03   -0.25950E-02   704   0.309E-01    0.291E-02
DAV:   2    -0.872632992406E+03   -0.40845E-04   -0.47575E-04   768   0.388E-02    0.188E-02
DAV:   3    -0.872632989223E+03    0.31825E-05   -0.85039E-06   784   0.618E-03    0.116E-02
DAV:   4    -0.872632988154E+03    0.10694E-05   -0.11861E-05   744   0.828E-03    0.341E-03
DAV:   5    -0.872632988125E+03    0.29286E-07   -0.20808E-06   568   0.323E-03
  69 F= -.87263299E+03 E0= -.87263299E+03  d E =-.160064E-03
       N       E                     dE             d eps       ncg     rms          rms(c)
DAV:   1    -0.872633050560E+03   -0.62406E-04   -0.51538E-03   704   0.140E-01    0.173E-02
DAV:   2    -0.872633059741E+03   -0.91812E-05   -0.10874E-04   792   0.190E-02    0.849E-03
DAV:   3    -0.872633059032E+03    0.70837E-06   -0.21037E-06   576   0.347E-03
  70 F= -.87263306E+03 E0= -.87263306E+03  d E =-.709078E-04
       N       E                     dE             d eps       ncg     rms          rms(c)
DAV:   1    -0.872633126204E+03   -0.66463E-04   -0.71467E-03   704   0.163E-01    0.204E-02
DAV:   2    -0.872633137177E+03   -0.10974E-04   -0.13556E-04   792   0.213E-02    0.971E-03
DAV:   3    -0.872633136077E+03    0.10996E-05   -0.29695E-06   608   0.410E-03    0.572E-03
DAV:   4    -0.872633135629E+03    0.44869E-06   -0.27278E-06   584   0.473E-03
  71 F= -.87263314E+03 E0= -.87263314E+03  d E =-.765964E-04
       N       E                     dE             d eps       ncg     rms          rms(c)
DAV:   1    -0.872633166739E+03   -0.30662E-04   -0.11703E-03   704   0.669E-02    0.117E-02
DAV:   2    -0.872633168731E+03   -0.19917E-05   -0.30344E-05   800   0.105E-02    0.535E-03
DAV:   3    -0.872633168277E+03    0.45419E-06   -0.10237E-06   520   0.273E-03
  72 F= -.87263317E+03 E0= -.87263317E+03  d E =-.326477E-04
       N       E                     dE             d eps       ncg     rms          rms(c)
DAV:   1    -0.872633249381E+03   -0.80650E-04   -0.96978E-03   704   0.189E-01    0.187E-02
DAV:   2    -0.872633265017E+03   -0.15636E-04   -0.18197E-04   768   0.241E-02    0.112E-02
DAV:   3    -0.872633264115E+03    0.90147E-06   -0.32826E-06   624   0.388E-03
  73 F= -.87263326E+03 E0= -.87263326E+03  d E =-.958387E-04
       N       E                     dE             d eps       ncg     rms          rms(c)
DAV:   1    -0.872633307635E+03   -0.42619E-04   -0.23248E-03   704   0.930E-02    0.106E-02
DAV:   2    -0.872633310926E+03   -0.32902E-05   -0.40347E-05   776   0.115E-02    0.569E-03
DAV:   3    -0.872633310725E+03    0.20023E-06   -0.12049E-06   520   0.248E-03
  74 F= -.87263331E+03 E0= -.87263331E+03  d E =-.466101E-04
       N       E                     dE             d eps       ncg     rms          rms(c)
DAV:   1    -0.872633438218E+03   -0.12729E-03   -0.32787E-02   712   0.347E-01    0.335E-02
DAV:   2    -0.872633490831E+03   -0.52613E-04   -0.60246E-04   768   0.434E-02    0.203E-02
DAV:   3    -0.872633487917E+03    0.29144E-05   -0.10593E-05   808   0.679E-03    0.123E-02
DAV:   4    -0.872633487210E+03    0.70652E-06   -0.12387E-05   736   0.881E-03    0.349E-03
DAV:   5    -0.872633487224E+03   -0.13948E-07   -0.24354E-06   624   0.337E-03
  75 F= -.87263349E+03 E0= -.87263349E+03  d E =-.176499E-03
       N       E                     dE             d eps       ncg     rms          rms(c)
DAV:   1    -0.872633480732E+03    0.64786E-05   -0.60153E-04   704   0.484E-02    0.125E-02
DAV:   2    -0.872633481706E+03   -0.97436E-06   -0.19804E-05   832   0.859E-03    0.457E-03
DAV:   3    -0.872633481118E+03    0.58817E-06   -0.82548E-07   496   0.282E-03
  76 F= -.87263348E+03 E0= -.87263348E+03  d E =0.610633E-05
       N       E                     dE             d eps       ncg     rms          rms(c)
DAV:   1    -0.872633536687E+03   -0.54981E-04   -0.38801E-03   704   0.120E-01    0.138E-02
DAV:   2    -0.872633543295E+03   -0.66079E-05   -0.79101E-05   776   0.162E-02    0.732E-03
DAV:   3    -0.872633542788E+03    0.50733E-06   -0.15244E-06   560   0.292E-03
  77 F= -.87263354E+03 E0= -.87263354E+03  d E =-.616702E-04
       N       E                     dE             d eps       ncg     rms          rms(c)
DAV:   1    -0.872633608442E+03   -0.65146E-04   -0.61240E-03   712   0.150E-01    0.148E-02
DAV:   2    -0.872633617769E+03   -0.93275E-05   -0.10841E-04   768   0.185E-02    0.861E-03
DAV:   3    -0.872633617285E+03    0.48423E-06   -0.20742E-06   592   0.299E-03
  78 F= -.87263362E+03 E0= -.87263362E+03  d E =-.744970E-04
       N       E                     dE             d eps       ncg     rms          rms(c)
DAV:   1    -0.872633622956E+03   -0.51868E-05   -0.28500E-05   680   0.102E-02    0.179E-03
DAV:   2    -0.872633622964E+03   -0.75888E-08   -0.31864E-07   400   0.121E-03
  79 F= -.87263362E+03 E0= -.87263362E+03  d E =-.567858E-05
       N       E                     dE             d eps       ncg     rms          rms(c)
DAV:   1    -0.872633699893E+03   -0.76937E-04   -0.11545E-02   704   0.208E-01    0.205E-02
DAV:   2    -0.872633720059E+03   -0.20166E-04   -0.23012E-04   784   0.269E-02    0.118E-02
DAV:   3    -0.872633718997E+03    0.10621E-05   -0.40042E-06   672   0.430E-03    0.738E-03
DAV:   4    -0.872633718666E+03    0.33095E-06   -0.54726E-06   712   0.578E-03
  80 F= -.87263372E+03 E0= -.87263372E+03  d E =-.957024E-04
       N       E                     dE             d eps       ncg     rms          rms(c)
DAV:   1    -0.872633593120E+03    0.12588E-03   -0.48607E-01   704   0.134E+00    0.126E-01
DAV:   2    -0.872634403178E+03   -0.81006E-03   -0.92149E-03   768   0.170E-01    0.755E-02
DAV:   3    -0.872634362116E+03    0.41062E-04   -0.16408E-04   808   0.266E-02    0.471E-02
DAV:   4    -0.872634348651E+03    0.13466E-04   -0.19863E-04   752   0.359E-02    0.150E-02
DAV:   5    -0.872634348693E+03   -0.42361E-07   -0.39867E-05   808   0.136E-02    0.138E-02
DAV:   6    -0.872634347070E+03    0.16234E-05   -0.12739E-05   800   0.771E-03    0.651E-03
DAV:   7    -0.872634346568E+03    0.50140E-06   -0.20731E-06   552   0.319E-03
  81 F= -.87263435E+03 E0= -.87263435E+03  d E =-.627902E-03
       N       E                     dE             d eps       ncg     rms          rms(c)
DAV:   1    -0.872634468450E+03   -0.12138E-03   -0.10217E-01   704   0.615E-01    0.567E-02
DAV:   2    -0.872634639801E+03   -0.17135E-03   -0.19299E-03   768   0.777E-02    0.345E-02
DAV:   3    -0.872634630622E+03    0.91785E-05   -0.32146E-05   800   0.118E-02    0.215E-02
DAV:   4    -0.872634627816E+03    0.28056E-05   -0.42019E-05   752   0.163E-02    0.657E-03
DAV:   5    -0.872634627848E+03   -0.31534E-07   -0.85986E-06   776   0.621E-03
  82 F= -.87263463E+03 E0= -.87263463E+03  d E =-.281280E-03
       N       E                     dE             d eps       ncg     rms          rms(c)
DAV:   1    -0.872634715121E+03   -0.87305E-04   -0.17554E-01   704   0.806E-01    0.757E-02
DAV:   2    -0.872635010009E+03   -0.29489E-03   -0.33338E-03   768   0.102E-01    0.447E-02
DAV:   3    -0.872634996252E+03    0.13758E-04   -0.57541E-05   800   0.157E-02    0.279E-02
DAV:   4    -0.872634992062E+03    0.41895E-05   -0.69362E-05   760   0.214E-02    0.880E-03
DAV:   5    -0.872634992136E+03   -0.73393E-07   -0.14269E-05   808   0.802E-03    0.822E-03
DAV:   6    -0.872634991540E+03    0.59536E-06   -0.41555E-06   688   0.442E-03
  83 F= -.87263499E+03 E0= -.87263499E+03  d E =-.363692E-03
       N       E                     dE             d eps       ncg     rms          rms(c)
DAV:   1    -0.872635070327E+03   -0.78191E-04   -0.13410E-02   704   0.223E-01    0.215E-02
DAV:   2    -0.872635093415E+03   -0.23089E-04   -0.26056E-04   768   0.286E-02    0.126E-02
DAV:   3    -0.872635092364E+03    0.10511E-05   -0.42466E-06   664   0.443E-03    0.784E-03
DAV:   4    -0.872635092147E+03    0.21717E-06   -0.58367E-06   696   0.619E-03
  84 F= -.87263509E+03 E0= -.87263509E+03  d E =-.100607E-03
       N       E                     dE             d eps       ncg     rms          rms(c)
DAV:   1    -0.872635198439E+03   -0.10607E-03   -0.20617E-01   704   0.864E-01    0.854E-02
DAV:   2    -0.872635528024E+03   -0.32959E-03   -0.37858E-03   768   0.109E-01    0.515E-02
DAV:   3    -0.872635510018E+03    0.18006E-04   -0.68274E-05   824   0.171E-02    0.313E-02
DAV:   4    -0.872635505797E+03    0.42216E-05   -0.79437E-05   752   0.221E-02    0.914E-03
DAV:   5    -0.872635505790E+03    0.70431E-08   -0.15304E-05   808   0.839E-03    0.833E-03
DAV:   6    -0.872635505203E+03    0.58665E-06   -0.48445E-06   720   0.478E-03
  85 F= -.87263551E+03 E0= -.87263551E+03  d E =-.413056E-03
       N       E                     dE             d eps       ncg     rms          rms(c)
DAV:   1    -0.872633785535E+03    0.17203E-02   -0.66960E-01   704   0.158E+00    0.143E-01
DAV:   2    -0.872634907985E+03   -0.11224E-02   -0.12704E-02   768   0.200E-01    0.870E-02
DAV:   3    -0.872634850114E+03    0.57870E-04   -0.22144E-04   808   0.307E-02    0.546E-02
DAV:   4    -0.872634829196E+03    0.20919E-04   -0.27585E-04   768   0.423E-02    0.174E-02
DAV:   5    -0.872634829538E+03   -0.34222E-06   -0.56408E-05   808   0.161E-02    0.163E-02
DAV:   6    -0.872634827362E+03    0.21755E-05   -0.16500E-05   800   0.878E-03    0.794E-03
DAV:   7    -0.872634826614E+03    0.74862E-06   -0.31755E-06   616   0.399E-03
  86 F= -.87263483E+03 E0= -.87263483E+03  d E =0.678589E-03
       N       E                     dE             d eps       ncg     rms          rms(c)
DAV:   1    -0.872634974606E+03   -0.14724E-03   -0.13187E-01   704   0.694E-01    0.702E-02
DAV:   2    -0.872635183013E+03   -0.20841E-03   -0.24102E-03   768   0.873E-02    0.405E-02
DAV:   3    -0.872635169983E+03    0.13030E-04   -0.44393E-05   816   0.141E-02    0.245E-02
DAV:   4    -0.872635166044E+03    0.39389E-05   -0.47889E-05   768   0.180E-02    0.649E-03
DAV:   5    -0.872635166393E+03   -0.34891E-06   -0.10772E-05   816   0.679E-03    0.655E-03
DAV:   6    -0.872635166073E+03    0.32015E-06   -0.16797E-06   512   0.290E-03
  87 F= -.87263517E+03 E0= -.87263517E+03  d E =-.339459E-03
       N       E                     dE             d eps       ncg     rms          rms(c)
DAV:   1    -0.872635140433E+03    0.25959E-04   -0.40225E-01   704   0.121E+00    0.120E-01
DAV:   2    -0.872635784840E+03   -0.64441E-03   -0.73756E-03   768   0.152E-01    0.724E-02
DAV:   3    -0.872635746712E+03    0.38128E-04   -0.12950E-04   816   0.238E-02    0.438E-02
DAV:   4    -0.872635737447E+03    0.92648E-05   -0.15444E-04   752   0.308E-02    0.123E-02
DAV:   5    -0.872635737567E+03   -0.11951E-06   -0.30732E-05   816   0.118E-02    0.115E-02
DAV:   6    -0.872635736450E+03    0.11163E-05   -0.79431E-06   744   0.610E-03    0.568E-03
DAV:   7    -0.872635736005E+03    0.44510E-06   -0.16109E-06   512   0.300E-03
  88 F= -.87263574E+03 E0= -.87263574E+03  d E =-.569933E-03
       N       E                     dE             d eps       ncg     rms          rms(c)
DAV:   1    -0.872635862163E+03   -0.12571E-03   -0.88318E-02   704   0.569E-01    0.552E-02
DAV:   2    -0.872636007858E+03   -0.14570E-03   -0.16530E-03   768   0.718E-02    0.335E-02
DAV:   3    -0.872635999450E+03    0.84078E-05   -0.27980E-05   816   0.112E-02    0.205E-02
DAV:   4    -0.872635997263E+03    0.21874E-05   -0.35621E-05   752   0.148E-02    0.601E-03
DAV:   5    -0.872635997250E+03    0.12871E-07   -0.72037E-06   768   0.570E-03
  89 F= -.87263600E+03 E0= -.87263600E+03  d E =-.261245E-03
       N       E                     dE             d eps       ncg     rms          rms(c)
DAV:   1    -0.872635945951E+03    0.51312E-04   -0.36695E-01   704   0.115E+00    0.113E-01
DAV:   2    -0.872636541226E+03   -0.59528E-03   -0.67834E-03   768   0.145E-01    0.677E-02
DAV:   3    -0.872636510019E+03    0.31207E-04   -0.11825E-04   808   0.226E-02    0.413E-02
DAV:   4    -0.872636502070E+03    0.79489E-05   -0.13780E-04   752   0.295E-02    0.119E-02
DAV:   5    -0.872636502224E+03   -0.15384E-06   -0.27565E-05   808   0.111E-02    0.110E-02
DAV:   6    -0.872636501174E+03    0.10503E-05   -0.79327E-06   744   0.608E-03    0.529E-03
DAV:   7    -0.872636500823E+03    0.35047E-06   -0.13620E-06   504   0.266E-03
  90 F= -.87263650E+03 E0= -.87263650E+03  d E =-.503573E-03
       N       E                     dE             d eps       ncg     rms          rms(c)
DAV:   1    -0.872636604194E+03   -0.10302E-03   -0.10656E-01   704   0.623E-01    0.616E-02
DAV:   2    -0.872636778036E+03   -0.17384E-03   -0.19787E-03   768   0.785E-02    0.367E-02
DAV:   3    -0.872636767036E+03    0.11000E-04   -0.33801E-05   816   0.124E-02    0.223E-02
DAV:   4    -0.872636763823E+03    0.32132E-05   -0.40847E-05   768   0.163E-02    0.611E-03
DAV:   5    -0.872636763980E+03   -0.15725E-06   -0.90749E-06   816   0.627E-03
  91 F= -.87263676E+03 E0= -.87263676E+03  d E =-.263157E-03
       N       E                     dE             d eps       ncg     rms          rms(c)
DAV:   1    -0.872636642539E+03    0.12128E-03   -0.42923E-01   704   0.125E+00    0.123E-01
DAV:   2    -0.872637336438E+03   -0.69390E-03   -0.79285E-03   768   0.157E-01    0.738E-02
DAV:   3    -0.872637299631E+03    0.36807E-04   -0.13925E-04   816   0.246E-02    0.449E-02
DAV:   4    -0.872637291006E+03    0.86252E-05   -0.16581E-04   752   0.321E-02    0.132E-02
DAV:   5    -0.872637290977E+03    0.28675E-07   -0.32403E-05   808   0.121E-02    0.121E-02
DAV:   6    -0.872637289706E+03    0.12710E-05   -0.97150E-06   744   0.672E-03    0.578E-03
DAV:   7    -0.872637289295E+03    0.41096E-06   -0.16560E-06   512   0.292E-03
  92 F= -.87263729E+03 E0= -.87263729E+03  d E =-.525315E-03
       N       E                     dE             d eps       ncg     rms          rms(c)
DAV:   1    -0.872635760302E+03    0.15294E-02   -0.61359E-01   704   0.149E+00    0.146E-01
DAV:   2    -0.872636738286E+03   -0.97798E-03   -0.11189E-02   752   0.187E-01    0.883E-02
DAV:   3    -0.872636681353E+03    0.56933E-04   -0.19841E-04   808   0.291E-02    0.534E-02
DAV:   4    -0.872636666016E+03    0.15337E-04   -0.22174E-04   768   0.374E-02    0.144E-02
DAV:   5    -0.872636666826E+03   -0.81020E-06   -0.45484E-05   808   0.141E-02    0.137E-02
DAV:   6    -0.872636665311E+03    0.15154E-05   -0.11121E-05   776   0.716E-03    0.696E-03
DAV:   7    -0.872636664694E+03    0.61689E-06   -0.22489E-06   592   0.340E-03
  93 F= -.87263666E+03 E0= -.87263666E+03  d E =0.624601E-03
       N       E                     dE             d eps       ncg     rms          rms(c)
DAV:   1    -0.872636768490E+03   -0.10318E-03   -0.31346E-02   712   0.336E-01    0.351E-02
DAV:   2    -0.872636817658E+03   -0.49168E-04   -0.57429E-04   768   0.424E-02    0.201E-02
DAV:   3    -0.872636814657E+03    0.30010E-05   -0.11024E-05   808   0.693E-03    0.121E-02
DAV:   4    -0.872636813837E+03    0.82026E-06   -0.11132E-05   728   0.862E-03    0.321E-03
DAV:   5    -0.872636813896E+03   -0.59110E-07   -0.23452E-06   632   0.326E-03
  94 F= -.87263681E+03 E0= -.87263681E+03  d E =-.149202E-03
       N       E                     dE             d eps       ncg     rms          rms(c)
DAV:   1    -0.872636906507E+03   -0.92670E-04   -0.27230E-02   704   0.314E-01    0.320E-02
DAV:   2    -0.872636950636E+03   -0.44130E-04   -0.50658E-04   760   0.397E-02    0.185E-02
DAV:   3    -0.872636948257E+03    0.23793E-05   -0.89929E-06   808   0.634E-03    0.112E-02
DAV:   4    -0.872636947762E+03    0.49547E-06   -0.10474E-05   728   0.820E-03    0.331E-03
DAV:   5    -0.872636947758E+03    0.38635E-08   -0.20241E-06   568   0.309E-03
  95 F= -.87263695E+03 E0= -.87263695E+03  d E =-.133862E-03
       N       E                     dE             d eps       ncg     rms          rms(c)
DAV:   1    -0.872636970685E+03   -0.22923E-04   -0.12252E-03   704   0.674E-02    0.944E-03
DAV:   2    -0.872636972906E+03   -0.22217E-05   -0.27118E-05   800   0.938E-03    0.415E-03
DAV:   3    -0.872636972711E+03    0.19580E-06   -0.52371E-07   488   0.183E-03
  96 F= -.87263697E+03 E0= -.87263697E+03  d E =-.249527E-04
       N       E                     dE             d eps       ncg     rms          rms(c)
DAV:   1    -0.872637006342E+03   -0.33435E-04   -0.19161E-03   712   0.832E-02    0.880E-03
DAV:   2    -0.872637009281E+03   -0.29399E-05   -0.34729E-05   768   0.105E-02    0.512E-03
DAV:   3    -0.872637009097E+03    0.18458E-06   -0.63746E-07   512   0.180E-03
  97 F= -.87263701E+03 E0= -.87263701E+03  d E =-.363862E-04
       N       E                     dE             d eps       ncg     rms          rms(c)
DAV:   1    -0.872637021048E+03   -0.11767E-04   -0.21805E-04   704   0.281E-02    0.367E-03
DAV:   2    -0.872637021325E+03   -0.27724E-06   -0.34896E-06   608   0.342E-03
  98 F= -.87263702E+03 E0= -.87263702E+03  d E =-.122285E-04
       N       E                     dE             d eps       ncg     rms          rms(c)
DAV:   1    -0.872637111464E+03   -0.90416E-04   -0.23896E-02   704   0.294E-01    0.307E-02
DAV:   2    -0.872637149316E+03   -0.37852E-04   -0.44064E-04   768   0.370E-02    0.182E-02
DAV:   3    -0.872637146870E+03    0.24460E-05   -0.80480E-06   784   0.602E-03    0.108E-02
DAV:   4    -0.872637146383E+03    0.48646E-06   -0.92091E-06   728   0.740E-03
  99 F= -.87263715E+03 E0= -.87263715E+03  d E =-.125058E-03
       N       E                     dE             d eps       ncg     rms          rms(c)
DAV:   1    -0.872636930456E+03    0.21641E-03   -0.56810E-01   712   0.142E+00    0.145E-01
DAV:   2    -0.872637825609E+03   -0.89515E-03   -0.10299E-02   760   0.178E-01    0.878E-02
DAV:   3    -0.872637772758E+03    0.52851E-04   -0.18282E-04   816   0.284E-02    0.526E-02
DAV:   4    -0.872637761608E+03    0.11150E-04   -0.21521E-04   752   0.364E-02    0.147E-02
DAV:   5    -0.872637761656E+03   -0.48400E-07   -0.42147E-05   816   0.137E-02    0.135E-02
DAV:   6    -0.872637760107E+03    0.15486E-05   -0.11391E-05   760   0.727E-03    0.661E-03
DAV:   7    -0.872637759519E+03    0.58812E-06   -0.22577E-06   608   0.337E-03
 100 F= -.87263776E+03 E0= -.87263776E+03  d E =-.613136E-03
       N       E                     dE             d eps       ncg     rms          rms(c)
DAV:   1    -0.872636951787E+03    0.80832E-03   -0.27002E-01   712   0.982E-01    0.995E-02
DAV:   2    -0.872637374341E+03   -0.42255E-03   -0.48823E-03   752   0.123E-01    0.601E-02
DAV:   3    -0.872637348683E+03    0.25658E-04   -0.88482E-05   816   0.196E-02    0.360E-02
DAV:   4    -0.872637343163E+03    0.55202E-05   -0.98895E-05   752   0.247E-02    0.974E-03
DAV:   5    -0.872637343358E+03   -0.19485E-06   -0.19547E-05   816   0.934E-03    0.904E-03
DAV:   6    -0.872637342687E+03    0.67094E-06   -0.51080E-06   728   0.489E-03
 101 F= -.87263734E+03 E0= -.87263734E+03  d E =0.416832E-03
       N       E                     dE             d eps       ncg     rms          rms(c)
DAV:   1    -0.872637408178E+03   -0.64820E-04   -0.11742E-02   704   0.205E-01    0.264E-02
DAV:   2    -0.872637425822E+03   -0.17644E-04   -0.21846E-04   784   0.266E-02    0.131E-02
DAV:   3    -0.872637423636E+03    0.21861E-05   -0.47194E-06   712   0.524E-03    0.763E-03
DAV:   4    -0.872637422881E+03    0.75468E-06   -0.55031E-06   712   0.632E-03
 102 F= -.87263742E+03 E0= -.87263742E+03  d E =-.801943E-04
       N       E                     dE             d eps       ncg     rms          rms(c)
DAV:   1    -0.872637364159E+03    0.59477E-04   -0.60197E-03   704   0.149E-01    0.193E-02
DAV:   2    -0.872637373721E+03   -0.95622E-05   -0.11759E-04   784   0.197E-02    0.935E-03
DAV:   3    -0.872637372531E+03    0.11898E-05   -0.23238E-06   584   0.387E-03    0.550E-03
DAV:   4    -0.872637372113E+03    0.41821E-06   -0.30060E-06   592   0.461E-03
 103 F= -.87263737E+03 E0= -.87263737E+03  d E =0.507681E-04
       N       E                     dE             d eps       ncg     rms          rms(c)
DAV:   1    -0.872637424888E+03   -0.52357E-04   -0.11850E-02   704   0.210E-01    0.287E-02
DAV:   2    -0.872637444550E+03   -0.19662E-04   -0.24240E-04   792   0.284E-02    0.127E-02
DAV:   3    -0.872637442179E+03    0.23717E-05   -0.53923E-06   760   0.567E-03    0.744E-03
DAV:   4    -0.872637441128E+03    0.10504E-05   -0.47647E-06   720   0.609E-03    0.181E-03
DAV:   5    -0.872637441187E+03   -0.58368E-07   -0.15047E-06   544   0.274E-03
 104 F= -.87263744E+03 E0= -.87263744E+03  d E =-.690735E-04
       N       E                     dE             d eps       ncg     rms          rms(c)
DAV:   1    -0.872637468514E+03   -0.27386E-04   -0.16498E-03   704   0.779E-02    0.178E-02
DAV:   2    -0.872637471030E+03   -0.25162E-05   -0.43506E-05   816   0.125E-02    0.623E-03
DAV:   3    -0.872637470029E+03    0.10014E-05   -0.15997E-06   536   0.381E-03    0.339E-03
DAV:   4    -0.872637469654E+03    0.37481E-06   -0.17311E-06   552   0.379E-03
 105 F= -.87263747E+03 E0= -.87263747E+03  d E =-.284675E-04
       N       E                     dE             d eps       ncg     rms          rms(c)
DAV:   1    -0.872637509748E+03   -0.39719E-04   -0.75506E-03   704   0.167E-01    0.274E-02
DAV:   2    -0.872637522395E+03   -0.12648E-04   -0.16547E-04   800   0.238E-02    0.110E-02
DAV:   3    -0.872637520237E+03    0.21582E-05   -0.41771E-06   728   0.548E-03    0.630E-03
DAV:   4    -0.872637519326E+03    0.91121E-06   -0.42678E-06   720   0.608E-03
 106 F= -.87263752E+03 E0= -.87263752E+03  d E =-.496718E-04
       N       E                     dE             d eps       ncg     rms          rms(c)
DAV:   1    -0.872637544182E+03   -0.23945E-04   -0.14396E-03   704   0.747E-02    0.179E-02
DAV:   2    -0.872637546219E+03   -0.20374E-05   -0.40965E-05   832   0.125E-02    0.603E-03
DAV:   3    -0.872637545241E+03    0.97859E-06   -0.18131E-06   520   0.384E-03
 107 F= -.87263755E+03 E0= -.87263755E+03  d E =-.259149E-04
       N       E                     dE             d eps       ncg     rms          rms(c)
DAV:   1    -0.872637596115E+03   -0.49895E-04   -0.62268E-03   704   0.150E-01    0.159E-02
DAV:   2    -0.872637606013E+03   -0.98987E-05   -0.11545E-04   776   0.190E-02    0.930E-03
DAV:   3    -0.872637605371E+03    0.64282E-06   -0.20323E-06   608   0.308E-03
 108 F= -.87263761E+03 E0= -.87263761E+03  d E =-.601298E-04
       N       E                     dE             d eps       ncg     rms          rms(c)
DAV:   1    -0.872637630546E+03   -0.24532E-04   -0.11508E-03   704   0.645E-02    0.837E-03
DAV:   2    -0.872637632153E+03   -0.16077E-05   -0.20498E-05   792   0.818E-03    0.412E-03
DAV:   3    -0.872637632033E+03    0.12011E-06   -0.58857E-07   480   0.177E-03
 109 F= -.87263763E+03 E0= -.87263763E+03  d E =-.266627E-04
       N       E                     dE             d eps       ncg     rms          rms(c)
DAV:   1    -0.872637637880E+03   -0.57264E-05   -0.12087E-04   720   0.214E-02    0.486E-03
DAV:   2    -0.872637638043E+03   -0.16356E-06   -0.28967E-06   600   0.332E-03
 110 F= -.87263764E+03 E0= -.87263764E+03  d E =-.601003E-05
       N       E                     dE             d eps       ncg     rms          rms(c)
DAV:   1    -0.872637653309E+03   -0.15429E-04   -0.38169E-04   704   0.370E-02    0.428E-03
DAV:   2    -0.872637653890E+03   -0.58045E-06   -0.71198E-06   736   0.472E-03
 111 F= -.87263765E+03 E0= -.87263765E+03  d E =-.158462E-04
       N       E                     dE             d eps       ncg     rms          rms(c)
DAV:   1    -0.872637728671E+03   -0.75361E-04   -0.14561E-02   704   0.228E-01    0.259E-02
DAV:   2    -0.872637750729E+03   -0.22059E-04   -0.26193E-04   768   0.286E-02    0.149E-02
DAV:   3    -0.872637748986E+03    0.17432E-05   -0.49846E-06   704   0.496E-03    0.868E-03
DAV:   4    -0.872637748676E+03    0.30974E-06   -0.56678E-06   712   0.599E-03
 112 F= -.87263775E+03 E0= -.87263775E+03  d E =-.947868E-04
       N       E                     dE             d eps       ncg     rms          rms(c)
DAV:   1    -0.872637848556E+03   -0.99570E-04   -0.24411E-02   704   0.292E-01    0.328E-02
DAV:   2    -0.872637886489E+03   -0.37933E-04   -0.44662E-04   768   0.371E-02    0.195E-02
DAV:   3    -0.872637884316E+03    0.21736E-05   -0.88736E-06   800   0.632E-03    0.114E-02
DAV:   4    -0.872637884092E+03    0.22380E-06   -0.91830E-06   728   0.723E-03
 113 F= -.87263788E+03 E0= -.87263788E+03  d E =-.135415E-03
       N       E                     dE             d eps       ncg     rms          rms(c)
DAV:   1    -0.872638008753E+03   -0.12444E-03   -0.67535E-02   704   0.485E-01    0.534E-02
DAV:   2    -0.872638112232E+03   -0.10348E-03   -0.12088E-03   768   0.608E-02    0.320E-02
DAV:   3    -0.872638105999E+03    0.62333E-05   -0.22537E-05   808   0.101E-02    0.188E-02
DAV:   4    -0.872638105305E+03    0.69384E-06   -0.26068E-05   752   0.126E-02    0.525E-03
DAV:   5    -0.872638105235E+03    0.69471E-07   -0.47704E-06   736   0.473E-03
 114 F= -.87263811E+03 E0= -.87263811E+03  d E =-.221144E-03
       N       E                     dE             d eps       ncg     rms          rms(c)
DAV:   1    -0.872637848548E+03    0.25676E-03   -0.49582E-02   704   0.417E-01    0.445E-02
DAV:   2    -0.872637922425E+03   -0.73877E-04   -0.86937E-04   752   0.517E-02    0.276E-02
DAV:   3    -0.872637916909E+03    0.55156E-05   -0.16378E-05   808   0.848E-03    0.161E-02
DAV:   4    -0.872637916021E+03    0.88791E-06   -0.17373E-05   712   0.981E-03    0.382E-03
DAV:   5    -0.872637916041E+03   -0.19667E-07   -0.31577E-06   656   0.382E-03
 115 F= -.87263792E+03 E0= -.87263792E+03  d E =0.189195E-03
       N       E                     dE             d eps       ncg     rms          rms(c)
DAV:   1    -0.872637943540E+03   -0.27519E-04   -0.14817E-03   704   0.733E-02    0.959E-03
DAV:   2    -0.872637945865E+03   -0.23248E-05   -0.30309E-05   800   0.101E-02    0.574E-03
DAV:   3    -0.872637945442E+03    0.42327E-06   -0.65108E-07   488   0.206E-03
 116 F= -.87263795E+03 E0= -.87263795E+03  d E =-.294010E-04
       N       E                     dE             d eps       ncg     rms          rms(c)
DAV:   1    -0.872637934420E+03    0.11445E-04   -0.31289E-04   704   0.345E-02    0.581E-03
DAV:   2    -0.872637935122E+03   -0.70159E-06   -0.90088E-06   808   0.557E-03
 117 F= -.87263794E+03 E0= -.87263794E+03  d E =0.103199E-04
       N       E                     dE             d eps       ncg     rms          rms(c)
DAV:   1    -0.872637983921E+03   -0.49501E-04   -0.10362E-02   704   0.196E-01    0.276E-02
DAV:   2    -0.872638001957E+03   -0.18035E-04   -0.21960E-04   784   0.270E-02    0.120E-02
DAV:   3    -0.872637999958E+03    0.19987E-05   -0.48764E-06   736   0.537E-03    0.702E-03
DAV:   4    -0.872637999124E+03    0.83382E-06   -0.45152E-06   736   0.573E-03
 118 F= -.87263800E+03 E0= -.87263800E+03  d E =-.640023E-04
       N       E                     dE             d eps       ncg     rms          rms(c)
DAV:   1    -0.872638021883E+03   -0.21926E-04   -0.13058E-03   704   0.710E-02    0.165E-02
DAV:   2    -0.872638024032E+03   -0.21490E-05   -0.37658E-05   824   0.118E-02    0.591E-03
DAV:   3    -0.872638023162E+03    0.87068E-06   -0.13887E-06   512   0.351E-03
 119 F= -.87263802E+03 E0= -.87263802E+03  d E =-.240377E-04
       N       E                     dE             d eps       ncg     rms          rms(c)
DAV:   1    -0.872638072261E+03   -0.48228E-04   -0.55757E-03   704   0.141E-01    0.156E-02
DAV:   2    -0.872638081115E+03   -0.88547E-05   -0.10513E-04   768   0.182E-02    0.920E-03
DAV:   3    -0.872638080458E+03    0.65743E-06   -0.19005E-06   584   0.304E-03
 120 F= -.87263808E+03 E0= -.87263808E+03  d E =-.572963E-04
       N       E                     dE             d eps       ncg     rms          rms(c)
DAV:   1    -0.872638099978E+03   -0.18863E-04   -0.64917E-04   704   0.486E-02    0.710E-03
DAV:   2    -0.872638100937E+03   -0.95822E-06   -0.12190E-05   792   0.632E-03    0.356E-03
DAV:   3    -0.872638100827E+03    0.10990E-06   -0.45735E-07   448   0.172E-03
 121 F= -.87263810E+03 E0= -.87263810E+03  d E =-.203687E-04
       N       E                     dE             d eps       ncg     rms          rms(c)
DAV:   1    -0.872638123470E+03   -0.22533E-04   -0.85727E-04   712   0.553E-02    0.629E-03
DAV:   2    -0.872638124778E+03   -0.13079E-05   -0.15667E-05   768   0.697E-03    0.370E-03
DAV:   3    -0.872638124689E+03    0.88570E-07   -0.27031E-07   440   0.121E-03
 122 F= -.87263812E+03 E0= -.87263812E+03  d E =-.238622E-04
       N       E                     dE             d eps       ncg     rms          rms(c)
DAV:   1    -0.872638163853E+03   -0.39076E-04   -0.36843E-03   704   0.116E-01    0.145E-02
DAV:   2    -0.872638169620E+03   -0.57670E-05   -0.70182E-05   776   0.151E-02    0.714E-03
DAV:   3    -0.872638169101E+03    0.51924E-06   -0.13938E-06   552   0.286E-03
 123 F= -.87263817E+03 E0= -.87263817E+03  d E =-.444120E-04
       N       E                     dE             d eps       ncg     rms          rms(c)
DAV:   1    -0.872638183224E+03   -0.13604E-04   -0.45819E-04   704   0.417E-02    0.825E-03
DAV:   2    -0.872638183970E+03   -0.74555E-06   -0.11185E-05   800   0.625E-03    0.321E-03
DAV:   3    -0.872638183778E+03    0.19217E-06   -0.36483E-07   424   0.178E-03
 124 F= -.87263818E+03 E0= -.87263818E+03  d E =-.146766E-04
       N       E                     dE             d eps       ncg     rms          rms(c)
DAV:   1    -0.872638233787E+03   -0.49817E-04   -0.58193E-03   704   0.143E-01    0.155E-02
DAV:   2    -0.872638242781E+03   -0.89936E-05   -0.10521E-04   784   0.180E-02    0.904E-03
DAV:   3    -0.872638242148E+03    0.63267E-06   -0.18519E-06   600   0.298E-03
 125 F= -.87263824E+03 E0= -.87263824E+03  d E =-.583703E-04
       N       E                     dE             d eps       ncg     rms          rms(c)
DAV:   1    -0.872638259940E+03   -0.17159E-04   -0.49440E-04   712   0.426E-02    0.639E-03
DAV:   2    -0.872638260611E+03   -0.67112E-06   -0.94136E-06   784   0.554E-03
 126 F= -.87263826E+03 E0= -.87263826E+03  d E =-.184632E-04
       N       E                     dE             d eps       ncg     rms          rms(c)
DAV:   1    -0.872638312347E+03   -0.52407E-04   -0.60046E-03   704   0.146E-01    0.172E-02
DAV:   2    -0.872638321503E+03   -0.91561E-05   -0.11004E-04   768   0.185E-02    0.994E-03
DAV:   3    -0.872638320770E+03    0.73365E-06   -0.20998E-06   608   0.334E-03
 127 F= -.87263832E+03 E0= -.87263832E+03  d E =-.601585E-04
       N       E                     dE             d eps       ncg     rms          rms(c)
DAV:   1    -0.872638336670E+03   -0.15166E-04   -0.39579E-04   704   0.379E-02    0.586E-03
DAV:   2    -0.872638337161E+03   -0.49128E-06   -0.71864E-06   776   0.495E-03
 128 F= -.87263834E+03 E0= -.87263834E+03  d E =-.163913E-04
       N       E                     dE             d eps       ncg     rms          rms(c)
DAV:   1    -0.872638346854E+03   -0.10184E-04   -0.23021E-04   720   0.294E-02    0.599E-03
DAV:   2    -0.872638347243E+03   -0.38892E-06   -0.56826E-06   728   0.435E-03
 129 F= -.87263835E+03 E0= -.87263835E+03  d E =-.100819E-04
       N       E                     dE             d eps       ncg     rms          rms(c)
DAV:   1    -0.872638406298E+03   -0.59444E-04   -0.77821E-03   704   0.166E-01    0.181E-02
DAV:   2    -0.872638418331E+03   -0.12033E-04   -0.14094E-04   768   0.208E-02    0.109E-02
DAV:   3    -0.872638417526E+03    0.80564E-06   -0.24678E-06   600   0.343E-03
 130 F= -.87263842E+03 E0= -.87263842E+03  d E =-.702828E-04
       N       E                     dE             d eps       ncg     rms          rms(c)
DAV:   1    -0.872638430693E+03   -0.12362E-04   -0.27152E-04   704   0.308E-02    0.399E-03
DAV:   2    -0.872638430929E+03   -0.23639E-06   -0.35871E-06   672   0.347E-03
 131 F= -.87263843E+03 E0= -.87263843E+03  d E =-.134038E-04
       N       E                     dE             d eps       ncg     rms          rms(c)
DAV:   1    -0.872638531251E+03   -0.10056E-03   -0.50015E-02   704   0.423E-01    0.433E-02
DAV:   2    -0.872638611426E+03   -0.80174E-04   -0.92364E-04   752   0.530E-02    0.266E-02
DAV:   3    -0.872638606773E+03    0.46523E-05   -0.16169E-05   808   0.844E-03    0.159E-02
DAV:   4    -0.872638606062E+03    0.71113E-06   -0.19457E-05   736   0.107E-02    0.448E-03
DAV:   5    -0.872638606017E+03    0.44849E-07   -0.35888E-06   688   0.409E-03
 132 F= -.87263861E+03 E0= -.87263861E+03  d E =-.175088E-03
       N       E                     dE             d eps       ncg     rms          rms(c)
DAV:   1    -0.872638671722E+03   -0.65660E-04   -0.15280E-01   704   0.736E-01    0.757E-02
DAV:   2    -0.872638917105E+03   -0.24538E-03   -0.28132E-03   752   0.927E-02    0.453E-02
DAV:   3    -0.872638903390E+03    0.13715E-04   -0.49680E-05   808   0.148E-02    0.273E-02
DAV:   4    -0.872638900757E+03    0.26331E-05   -0.58740E-05   760   0.190E-02    0.786E-03
DAV:   5    -0.872638900690E+03    0.66640E-07   -0.11417E-05   808   0.723E-03    0.718E-03
DAV:   6    -0.872638900235E+03    0.45473E-06   -0.33785E-06   688   0.397E-03
 133 F= -.87263890E+03 E0= -.87263890E+03  d E =-.294218E-03
       N       E                     dE             d eps       ncg     rms          rms(c)
DAV:   1    -0.872638984831E+03   -0.84141E-04   -0.86692E-02   704   0.555E-01    0.582E-02
DAV:   2    -0.872639125443E+03   -0.14061E-03   -0.16120E-03   752   0.702E-02    0.343E-02
DAV:   3    -0.872639117137E+03    0.83053E-05   -0.27952E-05   808   0.112E-02    0.206E-02
DAV:   4    -0.872639115479E+03    0.16580E-05   -0.33485E-05   720   0.144E-02    0.572E-03
DAV:   5    -0.872639115506E+03   -0.27147E-07   -0.67829E-06   784   0.547E-03
 134 F= -.87263912E+03 E0= -.87263912E+03  d E =-.215271E-03
       N       E                     dE             d eps       ncg     rms          rms(c)
DAV:   1    -0.872639170896E+03   -0.55417E-04   -0.16320E-01   704   0.760E-01    0.784E-02
DAV:   2    -0.872639432487E+03   -0.26159E-03   -0.30075E-03   752   0.958E-02    0.468E-02
DAV:   3    -0.872639418310E+03    0.14176E-04   -0.54065E-05   816   0.153E-02    0.282E-02
DAV:   4    -0.872639415750E+03    0.25602E-05   -0.61800E-05   744   0.193E-02    0.811E-03
DAV:   5    -0.872639415663E+03    0.87231E-07   -0.11776E-05   816   0.736E-03    0.730E-03
DAV:   6    -0.872639415195E+03    0.46740E-06   -0.37091E-06   696   0.418E-03
 135 F= -.87263942E+03 E0= -.87263942E+03  d E =-.299689E-03
       N       E                     dE             d eps       ncg     rms          rms(c)
DAV:   1    -0.872638823829E+03    0.59183E-03   -0.18719E-01   704   0.815E-01    0.827E-02
DAV:   2    -0.872639118398E+03   -0.29457E-03   -0.33999E-03   736   0.102E-01    0.504E-02
DAV:   3    -0.872639100040E+03    0.18357E-04   -0.61408E-05   808   0.161E-02    0.302E-02
DAV:   4    -0.872639096160E+03    0.38799E-05   -0.68223E-05   712   0.201E-02    0.799E-03
DAV:   5    -0.872639096279E+03   -0.11876E-06   -0.13294E-05   816   0.771E-03    0.738E-03
DAV:   6    -0.872639095828E+03    0.45134E-06   -0.36029E-06   696   0.414E-03
 136 F= -.87263910E+03 E0= -.87263910E+03  d E =0.319368E-03
       N       E                     dE             d eps       ncg     rms          rms(c)
DAV:   1    -0.872639115425E+03   -0.19146E-04   -0.38650E-03   704   0.115E-01    0.199E-02
DAV:   2    -0.872639120771E+03   -0.53459E-05   -0.77645E-05   808   0.160E-02    0.889E-03
DAV:   3    -0.872639119324E+03    0.14474E-05   -0.21148E-06   608   0.375E-03    0.479E-03
DAV:   4    -0.872639118909E+03    0.41471E-06   -0.27127E-06   640   0.402E-03
 137 F= -.87263912E+03 E0= -.87263912E+03  d E =-.230812E-04
       N       E                     dE             d eps       ncg     rms          rms(c)
DAV:   1    -0.872639146937E+03   -0.27613E-04   -0.10706E-03   728   0.631E-02    0.131E-02
DAV:   2    -0.872639148885E+03   -0.19486E-05   -0.29672E-05   800   0.101E-02    0.561E-03
DAV:   3    -0.872639148356E+03    0.52928E-06   -0.95913E-07   528   0.261E-03
 138 F= -.87263915E+03 E0= -.87263915E+03  d E =-.294471E-04
       N       E                     dE             d eps       ncg     rms          rms(c)
DAV:   1    -0.872639191866E+03   -0.42981E-04   -0.45837E-03   704   0.127E-01    0.146E-02
DAV:   2    -0.872639198946E+03   -0.70796E-05   -0.84633E-05   768   0.161E-02    0.837E-03
DAV:   3    -0.872639198384E+03    0.56124E-06   -0.15144E-06   560   0.275E-03
[...]
DAV:   3    -0.872641332294E+03    0.20295E-05   -0.94092E-06   792   0.604E-03    0.112E-02
DAV:   4    -0.872641332132E+03    0.16227E-06   -0.72616E-06   704   0.651E-03
 205 F= -.87264133E+03 E0= -.87264133E+03  d E =-.108598E-03
       N       E                     dE             d eps       ncg     rms          rms(c)
DAV:   1    -0.872641355684E+03   -0.23390E-04   -0.22090E-01   704   0.850E-01    0.977E-02
DAV:   2    -0.872641673025E+03   -0.31734E-03   -0.37500E-03   744   0.104E-01    0.598E-02
DAV:   3    -0.872641651218E+03    0.21807E-04   -0.71430E-05   816   0.176E-02    0.337E-02
DAV:   4    -0.872641649788E+03    0.14294E-05   -0.76435E-05   744   0.202E-02    0.863E-03
DAV:   5    -0.872641649567E+03    0.22126E-06   -0.13189E-05   808   0.754E-03    0.758E-03
DAV:   6    -0.872641649067E+03    0.49968E-06   -0.40812E-06   704   0.429E-03
 206 F= -.87264165E+03 E0= -.87264165E+03  d E =-.316936E-03
       N       E                     dE             d eps       ncg     rms          rms(c)
DAV:   1    -0.872641684971E+03   -0.35405E-04   -0.34245E-03   704   0.108E-01    0.144E-02
DAV:   2    -0.872641690694E+03   -0.57226E-05   -0.66739E-05   768   0.141E-02    0.801E-03
DAV:   3    -0.872641690279E+03    0.41528E-06   -0.11446E-06   552   0.270E-03
 207 F= -.87264169E+03 E0= -.87264169E+03  d E =-.412116E-04
       N       E                     dE             d eps       ncg     rms          rms(c)
DAV:   1    -0.872641753098E+03   -0.62404E-04   -0.14547E-02   704   0.218E-01    0.254E-02
DAV:   2    -0.872641773193E+03   -0.20095E-04   -0.24090E-04   760   0.264E-02    0.153E-02
DAV:   3    -0.872641771892E+03    0.13009E-05   -0.49762E-06   680   0.450E-03    0.851E-03
DAV:   4    -0.872641771819E+03    0.73487E-07   -0.43461E-06   632   0.486E-03
 208 F= -.87264177E+03 E0= -.87264177E+03  d E =-.815401E-04
       N       E                     dE             d eps       ncg     rms          rms(c)
DAV:   1    -0.872641845505E+03   -0.73613E-04   -0.92961E-02   704   0.551E-01    0.639E-02
DAV:   2    -0.872641980265E+03   -0.13476E-03   -0.15940E-03   752   0.680E-02    0.391E-02
DAV:   3    -0.872641971118E+03    0.91469E-05   -0.30479E-05   808   0.116E-02    0.221E-02
DAV:   4    -0.872641970710E+03    0.40766E-06   -0.33686E-05   736   0.133E-02    0.596E-03
DAV:   5    -0.872641970523E+03    0.18676E-06   -0.55951E-06   752   0.504E-03
 209 F= -.87264197E+03 E0= -.87264197E+03  d E =-.198705E-03
       N       E                     dE             d eps       ncg     rms          rms(c)
DAV:   1    -0.872641904764E+03    0.65946E-04   -0.88124E-03   704   0.173E-01    0.194E-02
DAV:   2    -0.872641917063E+03   -0.12298E-04   -0.15049E-04   752   0.213E-02    0.120E-02
DAV:   3    -0.872641915753E+03    0.13095E-05   -0.29767E-06   640   0.372E-03    0.682E-03
DAV:   4    -0.872641915488E+03    0.26558E-06   -0.32293E-06   608   0.417E-03
 210 F= -.87264192E+03 E0= -.87264192E+03  d E =0.550355E-04
       N       E                     dE             d eps       ncg     rms          rms(c)
DAV:   1    -0.872641787703E+03    0.12805E-03   -0.21346E-02   704   0.262E-01    0.329E-02
DAV:   2    -0.872641817842E+03   -0.30139E-04   -0.36431E-04   760   0.326E-02    0.193E-02
DAV:   3    -0.872641815592E+03    0.22501E-05   -0.73891E-06   752   0.583E-03    0.107E-02
DAV:   4    -0.872641815500E+03    0.92041E-07   -0.72856E-06   696   0.638E-03
 211 F= -.87264182E+03 E0= -.87264182E+03  d E =0.999879E-04
       N       E                     dE             d eps       ncg     rms          rms(c)
DAV:   1    -0.872641805364E+03    0.10228E-04   -0.50390E-04   720   0.424E-02    0.824E-03
DAV:   2    -0.872641806107E+03   -0.74301E-06   -0.12287E-05   800   0.663E-03    0.343E-03
DAV:   3    -0.872641805977E+03    0.12940E-06   -0.46239E-07   448   0.179E-03
 212 F= -.87264181E+03 E0= -.87264181E+03  d E =0.952282E-05
       N       E                     dE             d eps       ncg     rms          rms(c)
DAV:   1    -0.872641821986E+03   -0.15880E-04   -0.24465E-03   704   0.944E-02    0.163E-02
DAV:   2    -0.872641826254E+03   -0.42672E-05   -0.57287E-05   800   0.139E-02    0.661E-03
DAV:   3    -0.872641825374E+03    0.87914E-06   -0.14180E-06   536   0.336E-03
 213 F= -.87264183E+03 E0= -.87264183E+03  d E =-.193972E-04
       N       E                     dE             d eps       ncg     rms          rms(c)
DAV:   1    -0.872641834463E+03   -0.82092E-05   -0.53676E-04   704   0.454E-02    0.112E-02
DAV:   2    -0.872641835484E+03   -0.10217E-05   -0.17484E-05   824   0.786E-03    0.411E-03
DAV:   3    -0.872641835081E+03    0.40323E-06   -0.61510E-07   496   0.244E-03
 214 F= -.87264184E+03 E0= -.87264184E+03  d E =-.970680E-05
       N       E                     dE             d eps       ncg     rms          rms(c)
DAV:   1    -0.872641853945E+03   -0.18461E-04   -0.44868E-03   704   0.127E-01    0.222E-02
DAV:   2    -0.872641861222E+03   -0.72770E-05   -0.98734E-05   800   0.183E-02    0.871E-03
DAV:   3    -0.872641859804E+03    0.14184E-05   -0.26655E-06   640   0.451E-03    0.496E-03
DAV:   4    -0.872641859234E+03    0.57017E-06   -0.29008E-06   672   0.503E-03
 215 F= -.87264186E+03 E0= -.87264186E+03  d E =-.241526E-04
       N       E                     dE             d eps       ncg     rms          rms(c)
DAV:   1    -0.872641874956E+03   -0.15152E-04   -0.99611E-04   704   0.619E-02    0.153E-02
DAV:   2    -0.872641876222E+03   -0.12660E-05   -0.28449E-05   824   0.105E-02    0.512E-03
DAV:   3    -0.872641875487E+03    0.73462E-06   -0.13621E-06   520   0.337E-03
 216 F= -.87264188E+03 E0= -.87264188E+03  d E =-.162532E-04
       N       E                     dE             d eps       ncg     rms          rms(c)
DAV:   1    -0.872641902094E+03   -0.25872E-04   -0.31347E-03   704   0.104E-01    0.116E-02
DAV:   2    -0.872641907048E+03   -0.49542E-05   -0.58546E-05   776   0.132E-02    0.671E-03
DAV:   3    -0.872641906676E+03    0.37166E-06   -0.10183E-06   552   0.232E-03
 217 F= -.87264191E+03 E0= -.87264191E+03  d E =-.311894E-04
       N       E                     dE             d eps       ncg     rms          rms(c)
DAV:   1    -0.872641918233E+03   -0.11185E-04   -0.44808E-04   704   0.399E-02    0.579E-03
DAV:   2    -0.872641918874E+03   -0.64120E-06   -0.83586E-06   784   0.520E-03
 218 F= -.87264192E+03 E0= -.87264192E+03  d E =-.121979E-04
       N       E                     dE             d eps       ncg     rms          rms(c)
DAV:   1    -0.872641944785E+03   -0.26552E-04   -0.31487E-03   704   0.105E-01    0.143E-02
DAV:   2    -0.872641949661E+03   -0.48764E-05   -0.60184E-05   776   0.136E-02    0.736E-03
DAV:   3    -0.872641949161E+03    0.50068E-06   -0.11967E-06   560   0.271E-03
 219 F= -.87264195E+03 E0= -.87264195E+03  d E =-.302863E-04
       N       E                     dE             d eps       ncg     rms          rms(c)
DAV:   1    -0.872641959367E+03   -0.97060E-05   -0.33708E-04   704   0.350E-02    0.651E-03
DAV:   2    -0.872641959797E+03   -0.43010E-06   -0.72558E-06   768   0.503E-03
 220 F= -.87264196E+03 E0= -.87264196E+03  d E =-.106368E-04
       N       E                     dE             d eps       ncg     rms          rms(c)
DAV:   1    -0.872641961470E+03   -0.21029E-05   -0.58040E-05   704   0.151E-02    0.383E-03
DAV:   2    -0.872641961563E+03   -0.92856E-07   -0.18264E-06   544   0.263E-03
 221 F= -.87264196E+03 E0= -.87264196E+03  d E =-.176561E-05
       N       E                     dE             d eps       ncg     rms          rms(c)
DAV:   1    -0.872641990800E+03   -0.29330E-04   -0.34651E-03   704   0.109E-01    0.118E-02
DAV:   2    -0.872641996145E+03   -0.53457E-05   -0.62718E-05   768   0.136E-02    0.714E-03
DAV:   3    -0.872641995793E+03    0.35271E-06   -0.10454E-06   544   0.229E-03
 222 F= -.87264200E+03 E0= -.87264200E+03  d E =-.342299E-04
       N       E                     dE             d eps       ncg     rms          rms(c)
DAV:   1    -0.872641998393E+03   -0.22477E-05   -0.16784E-05   672   0.760E-03    0.147E-03
DAV:   2    -0.872641998386E+03    0.74797E-08   -0.20856E-07   376   0.108E-03
 223 F= -.87264200E+03 E0= -.87264200E+03  d E =-.259298E-05
       N       E                     dE             d eps       ncg     rms          rms(c)
DAV:   1    -0.872642010923E+03   -0.12529E-04   -0.53812E-04   704   0.437E-02    0.534E-03
DAV:   2    -0.872642011867E+03   -0.94438E-06   -0.11123E-05   776   0.584E-03    0.311E-03
DAV:   3    -0.872642011783E+03    0.83681E-07   -0.19678E-07   408   0.118E-03
 224 F= -.87264201E+03 E0= -.87264201E+03  d E =-.133975E-04
       N       E                     dE             d eps       ncg     rms          rms(c)
DAV:   1    -0.872642045902E+03   -0.34035E-04   -0.58600E-03   704   0.143E-01    0.155E-02
DAV:   2    -0.872642054967E+03   -0.90653E-05   -0.10596E-04   768   0.178E-02    0.876E-03
DAV:   3    -0.872642054447E+03    0.52077E-06   -0.19994E-06   616   0.295E-03
 225 F= -.87264205E+03 E0= -.87264205E+03  d E =-.426635E-04
       N       E                     dE             d eps       ncg     rms          rms(c)
DAV:   1    -0.872642105222E+03   -0.50255E-04   -0.23044E-02   704   0.283E-01    0.296E-02
DAV:   2    -0.872642140518E+03   -0.35295E-04   -0.41003E-04   768   0.349E-02    0.175E-02
DAV:   3    -0.872642138724E+03    0.17934E-05   -0.80774E-06   760   0.567E-03    0.103E-02
DAV:   4    -0.872642138398E+03    0.32581E-06   -0.72654E-06   696   0.666E-03
 226 F= -.87264214E+03 E0= -.87264214E+03  d E =-.839517E-04
       N       E                     dE             d eps       ncg     rms          rms(c)
DAV:   1    -0.872642147411E+03   -0.86872E-05   -0.13098E-01   704   0.670E-01    0.715E-02
DAV:   2    -0.872642352218E+03   -0.20481E-03   -0.23720E-03   752   0.836E-02    0.429E-02
DAV:   3    -0.872642340858E+03    0.11360E-04   -0.44099E-05   808   0.136E-02    0.256E-02
DAV:   4    -0.872642339239E+03    0.16188E-05   -0.50408E-05   752   0.170E-02    0.745E-03
DAV:   5    -0.872642339071E+03    0.16818E-06   -0.91133E-06   800   0.646E-03
 227 F= -.87264234E+03 E0= -.87264234E+03  d E =-.200673E-03
       N       E                     dE             d eps       ncg     rms          rms(c)
DAV:   1    -0.872642386922E+03   -0.47683E-04   -0.21851E-02   704   0.274E-01    0.298E-02
DAV:   2    -0.872642422766E+03   -0.35844E-04   -0.41039E-04   760   0.348E-02    0.171E-02
DAV:   3    -0.872642421165E+03    0.16012E-05   -0.71827E-06   744   0.582E-03    0.103E-02
DAV:   4    -0.872642421120E+03    0.44216E-07   -0.95581E-06   712   0.778E-03
 228 F= -.87264242E+03 E0= -.87264242E+03  d E =-.820494E-04
       N       E                     dE             d eps       ncg     rms          rms(c)
DAV:   1    -0.872642164696E+03    0.25647E-03   -0.77536E-02   704   0.522E-01    0.526E-02
DAV:   2    -0.872642287918E+03   -0.12322E-03   -0.14110E-03   760   0.649E-02    0.320E-02
DAV:   3    -0.872642280116E+03    0.78024E-05   -0.24718E-05   816   0.103E-02    0.193E-02
DAV:   4    -0.872642278344E+03    0.17713E-05   -0.29890E-05   768   0.132E-02    0.530E-03
DAV:   5    -0.872642278367E+03   -0.23152E-07   -0.59110E-06   768   0.506E-03
 229 F= -.87264228E+03 E0= -.87264228E+03  d E =0.142753E-03
       N       E                     dE             d eps       ncg     rms          rms(c)
DAV:   1    -0.872642333397E+03   -0.55053E-04   -0.20675E-02   704   0.266E-01    0.283E-02
DAV:   2    -0.872642364055E+03   -0.30657E-04   -0.36095E-04   736   0.327E-02    0.176E-02
DAV:   3    -0.872642361511E+03    0.25435E-05   -0.67392E-06   720   0.539E-03    0.103E-02
DAV:   4    -0.872642360958E+03    0.55335E-06   -0.74382E-06   728   0.639E-03
 230 F= -.87264236E+03 E0= -.87264236E+03  d E =-.825904E-04
       N       E                     dE             d eps       ncg     rms          rms(c)
DAV:   1    -0.872642405047E+03   -0.43535E-04   -0.79297E-03   704   0.160E-01    0.206E-02
DAV:   2    -0.872642416393E+03   -0.11346E-04   -0.13855E-04   776   0.203E-02    0.116E-02
DAV:   3    -0.872642415594E+03    0.79841E-06   -0.29648E-06   656   0.391E-03
 231 F= -.87264242E+03 E0= -.87264242E+03  d E =-.546366E-04
       N       E                     dE             d eps       ncg     rms          rms(c)
DAV:   1    -0.872642472097E+03   -0.55704E-04   -0.83892E-02   704   0.530E-01    0.596E-02
DAV:   2    -0.872642594712E+03   -0.12261E-03   -0.14390E-03   744   0.647E-02    0.357E-02
DAV:   3    -0.872642586865E+03    0.78474E-05   -0.27928E-05   800   0.107E-02    0.204E-02
DAV:   4    -0.872642585800E+03    0.10649E-05   -0.25722E-05   768   0.122E-02    0.471E-03
DAV:   5    -0.872642585878E+03   -0.78078E-07   -0.50687E-06   728   0.461E-03
 232 F= -.87264259E+03 E0= -.87264259E+03  d E =-.170283E-03
       N       E                     dE             d eps       ncg     rms          rms(c)
DAV:   1    -0.872642639682E+03   -0.53882E-04   -0.19408E-02   704   0.254E-01    0.289E-02
DAV:   2    -0.872642669963E+03   -0.30281E-04   -0.35076E-04   760   0.319E-02    0.171E-02
DAV:   3    -0.872642668450E+03    0.15128E-05   -0.62928E-06   720   0.538E-03    0.999E-03
DAV:   4    -0.872642668501E+03   -0.50910E-07   -0.78578E-06   696   0.655E-03
 233 F= -.87264267E+03 E0= -.87264267E+03  d E =-.826233E-04
       N       E                     dE             d eps       ncg     rms          rms(c)
DAV:   1    -0.872642717380E+03   -0.48930E-04   -0.98444E-03   704   0.177E-01    0.231E-02
DAV:   2    -0.872642731423E+03   -0.14044E-04   -0.17204E-04   768   0.223E-02    0.133E-02
DAV:   3    -0.872642730481E+03    0.94232E-06   -0.36151E-06   680   0.422E-03
 234 F= -.87264273E+03 E0= -.87264273E+03  d E =-.619800E-04
       N       E                     dE             d eps       ncg     rms          rms(c)
DAV:   1    -0.872642790394E+03   -0.58971E-04   -0.60759E-02   704   0.448E-01    0.507E-02
DAV:   2    -0.872642877742E+03   -0.87347E-04   -0.10300E-03   752   0.546E-02    0.307E-02
DAV:   3    -0.872642872478E+03    0.52641E-05   -0.20679E-05   800   0.906E-03    0.173E-02
DAV:   4    -0.872642872020E+03    0.45764E-06   -0.18288E-05   744   0.100E-02    0.411E-03
DAV:   5    -0.872642872028E+03   -0.81345E-08   -0.32442E-06   640   0.378E-03
 235 F= -.87264287E+03 E0= -.87264287E+03  d E =-.141547E-03
       N       E                     dE             d eps       ncg     rms          rms(c)
DAV:   1    -0.872642896070E+03   -0.24050E-04   -0.22532E-03   704   0.853E-02    0.109E-02
DAV:   2    -0.872642899649E+03   -0.35798E-05   -0.41713E-05   768   0.109E-02    0.596E-03
DAV:   3    -0.872642899465E+03    0.18426E-06   -0.64711E-07   528   0.196E-03
 236 F= -.87264290E+03 E0= -.87264290E+03  d E =-.274371E-04
       N       E                     dE             d eps       ncg     rms          rms(c)
DAV:   1    -0.872642955937E+03   -0.56288E-04   -0.50806E-02   704   0.409E-01    0.460E-02
DAV:   2    -0.872643029799E+03   -0.73862E-04   -0.86823E-04   752   0.500E-02    0.280E-02
DAV:   3    -0.872643025173E+03    0.46253E-05   -0.16787E-05   800   0.829E-03    0.159E-02
DAV:   4    -0.872643024788E+03    0.38595E-06   -0.16446E-05   752   0.945E-03    0.398E-03
DAV:   5    -0.872643024751E+03    0.36700E-07   -0.28283E-06   616   0.355E-03
 237 F= -.87264302E+03 E0= -.87264302E+03  d E =-.125286E-03
       N       E                     dE             d eps       ncg     rms          rms(c)
DAV:   1    -0.872642963493E+03    0.61295E-04   -0.22612E-01   704   0.862E-01    0.977E-02
DAV:   2    -0.872643300338E+03   -0.33684E-03   -0.39287E-03   736   0.106E-01    0.594E-02
DAV:   3    -0.872643278305E+03    0.22033E-04   -0.72320E-05   808   0.177E-02    0.341E-02
DAV:   4    -0.872643276289E+03    0.20153E-05   -0.81008E-05   760   0.210E-02    0.913E-03
DAV:   5    -0.872643275988E+03    0.30096E-06   -0.14323E-05   808   0.789E-03    0.810E-03
DAV:   6    -0.872643275406E+03    0.58208E-06   -0.44298E-06   704   0.445E-03
 238 F= -.87264328E+03 E0= -.87264328E+03  d E =-.250656E-03
       N       E                     dE             d eps       ncg     rms          rms(c)
DAV:   1    -0.872643316390E+03   -0.40401E-04   -0.13674E-02   704   0.213E-01    0.256E-02
DAV:   2    -0.872643337694E+03   -0.21304E-04   -0.24861E-04   768   0.270E-02    0.148E-02
DAV:   3    -0.872643336324E+03    0.13699E-05   -0.45442E-06   688   0.479E-03    0.856E-03
DAV:   4    -0.872643336237E+03    0.86256E-07   -0.54383E-06   696   0.559E-03
 239 F= -.87264334E+03 E0= -.87264334E+03  d E =-.608310E-04
       N       E                     dE             d eps       ncg     rms          rms(c)
DAV:   1    -0.872643383612E+03   -0.47288E-04   -0.24996E-02   720   0.286E-01    0.340E-02
DAV:   2    -0.872643420318E+03   -0.36706E-04   -0.43638E-04   752   0.355E-02    0.201E-02
DAV:   3    -0.872643417959E+03    0.23594E-05   -0.86896E-06   760   0.615E-03    0.115E-02
DAV:   4    -0.872643417796E+03    0.16218E-06   -0.90918E-06   704   0.716E-03
 240 F= -.87264342E+03 E0= -.87264342E+03  d E =-.815590E-04
       N       E                     dE             d eps       ncg     rms          rms(c)
DAV:   1    -0.872643326075E+03    0.91883E-04   -0.24141E-01   704   0.887E-01    0.102E-01
DAV:   2    -0.872643678086E+03   -0.35201E-03   -0.41465E-03   744   0.109E-01    0.622E-02
DAV:   3    -0.872643654558E+03    0.23527E-04   -0.79782E-05   808   0.185E-02    0.353E-02
DAV:   4    -0.872643652652E+03    0.19067E-05   -0.84599E-05   760   0.212E-02    0.938E-03
DAV:   5    -0.872643652266E+03    0.38595E-06   -0.14431E-05   808   0.800E-03    0.802E-03
DAV:   6    -0.872643651711E+03    0.55448E-06   -0.51442E-06   720   0.481E-03
 241 F= -.87264365E+03 E0= -.87264365E+03  d E =-.233915E-03
       N       E                     dE             d eps       ncg     rms          rms(c)
DAV:   1    -0.872643673987E+03   -0.21721E-04   -0.67722E-02   704   0.472E-01    0.542E-02
DAV:   2    -0.872643775581E+03   -0.10159E-03   -0.11825E-03   752   0.584E-02    0.328E-02
DAV:   3    -0.872643768947E+03    0.66346E-05   -0.21529E-05   800   0.985E-03    0.187E-02
DAV:   4    -0.872643768463E+03    0.48372E-06   -0.23510E-05   776   0.114E-02    0.483E-03
DAV:   5    -0.872643768397E+03    0.65520E-07   -0.42742E-06   680   0.432E-03
 242 F= -.87264377E+03 E0= -.87264377E+03  d E =-.116686E-03
       N       E                     dE             d eps       ncg     rms          rms(c)
DAV:   1    -0.872643582791E+03    0.18567E-03   -0.59845E-02   704   0.443E-01    0.510E-02
DAV:   2    -0.872643668776E+03   -0.85985E-04   -0.10231E-03   736   0.544E-02    0.315E-02
DAV:   3    -0.872643661904E+03    0.68729E-05   -0.19986E-05   808   0.925E-03    0.178E-02
DAV:   4    -0.872643661199E+03    0.70409E-06   -0.21100E-05   736   0.104E-02    0.442E-03
DAV:   5    -0.872643661148E+03    0.51245E-07   -0.35618E-06   648   0.400E-03
 243 F= -.87264366E+03 E0= -.87264366E+03  d E =0.107249E-03
       N       E                     dE             d eps       ncg     rms          rms(c)
DAV:   1    -0.872643659364E+03    0.18358E-05   -0.24658E-04   720   0.300E-02    0.696E-03
DAV:   2    -0.872643659740E+03   -0.37647E-06   -0.68196E-06   744   0.494E-03
 244 F= -.87264366E+03 E0= -.87264366E+03  d E =0.140808E-05
       N       E                     dE             d eps       ncg     rms          rms(c)
DAV:   1    -0.872643693809E+03   -0.34445E-04   -0.32215E-02   704   0.327E-01    0.363E-02
DAV:   2    -0.872643741713E+03   -0.47904E-04   -0.56123E-04   744   0.403E-02    0.220E-02
DAV:   3    -0.872643738357E+03    0.33564E-05   -0.10462E-05   768   0.672E-03    0.127E-02
DAV:   4    -0.872643737849E+03    0.50780E-06   -0.11394E-05   736   0.798E-03    0.327E-03
DAV:   5    -0.872643737831E+03    0.18328E-07   -0.20603E-06   584   0.302E-03
 245 F= -.87264374E+03 E0= -.87264374E+03  d E =-.780906E-04
