unknown system                          
           1
    13.729572   -0.004625   -0.001411
    -6.868739   11.890915    0.001820
    -0.001511    0.001307   14.890378
   Al   C    H    O    Si
   1   1   3  72  35
Direct configuration=     1
   0.57240602  0.67446068  0.56827017
   0.38740092  0.61230801  0.45004140
   0.42493803  0.70357282  0.45306948
   0.42125534  0.58732000  0.39351497
   0.29598611  0.57286335  0.44574402
   0.01555082  0.33442612  0.83943842
   0.20537246  0.41305022  0.54791252
   0.54877801  0.09559507  0.20322114
   0.87777259  0.76073973  0.86575626
   0.44386711  0.55187302  0.81710205
   0.12290078  0.87976406  0.13065194
   0.09161847  0.54693348  0.80128425
   0.41616648  0.20893994  0.46337982
   0.76281713  0.87993786  0.14035801
   0.22009592  0.78257927  0.53834201
   0.90234249  0.09864907  0.12995770
   0.23739252  0.11989601  0.86650148
   0.87450820  0.43756042  0.45633849
   0.43890302  0.86924468  0.54666303
   0.98556374  0.31586488  0.16800048
   0.65254159  0.01340158  0.50806089
   0.00873496  0.65189106  0.49648849
   0.33554487  0.31525446  0.16549348
   0.98612666  0.66554505  0.16417822
   0.36337356  0.36418579  0.50161768
   0.68494652  0.01662137  0.17082635
   0.66217646  0.98260015  0.84363032
   0.99962969  0.34640158  0.50051673
   0.78528280  0.21984808  0.46278218
   0.33627314  0.01899131  0.16458885
   0.90921950  0.45228885  0.20139067
   0.31102072  0.33233569  0.83089850
   0.44946106  0.90408790  0.80494485
   0.07008580  0.66276288  0.66634284
   0.66341666  0.07067790  0.33675968
   0.99665779  0.74070871  0.99942818
   0.59697757  0.94373708  0.67489013
   0.92956816  0.59577267  0.33101535
   0.25935298  0.26064078  0.99897284
   0.40726495  0.33959061  0.33352748
   0.79218742  0.57334207  0.46621946
   0.74295225  0.99782172  0.00585134
   0.58953291  0.80397170  0.54625386
   0.57996218  0.64442626  0.67836044
   0.26110354  0.00101170  0.99831399
   0.05663872  0.39983195  0.67050498
   0.40201013  0.06733737  0.33365538
   0.35481754  0.42616456  0.66970662
   0.74817944  0.74726443  0.00412579
   0.54905030  0.45127386  0.19846040
   0.87708494  0.12042934  0.87094150
   0.33591641  0.92930146  0.66833339
   0.57490110  0.42315271  0.45290142
   0.67129283  0.58705906  0.33168466
   0.93400467  0.33517179  0.33365608
   0.35117668  0.99807956  0.50121142
   0.31272204  0.98204253  0.83243653
   0.90423258  0.80190898  0.13019876
   0.23161858  0.76548925  0.78930448
   0.12187348  0.23857558  0.13427445
   0.56582586  0.14068843  0.45558498
   0.22757220  0.46386862  0.78359800
   0.20042553  0.09921220  0.12267566
   0.00006780  0.25743017  0.00331142
   0.09694870  0.90135916  0.87590962
   0.80139732  0.90247910  0.87631102
   0.41660758  0.57697683  0.53512963
   0.53429239  0.77012000  0.78934321
   0.76914724  0.53002858  0.20428749
   0.13572325  0.56236629  0.54618971
   0.46770431  0.23326577  0.21457805
   0.64292610  0.63665617  0.49563728
   0.76885082  0.23283650  0.21335646
   0.66037501  0.68391561  0.84431295
   0.01600081  0.68524459  0.83283701
   0.09630324  0.19731560  0.87611509
   0.68623581  0.66502756  0.16716419
   0.56107811  0.89869895  0.77727462
   0.99711711  0.77229381  0.89396785
   0.89810713  0.33325789  0.22924713
   0.77357801  0.99860549  0.11123618
   0.09836444  0.43128748  0.56726419
   0.33438020  0.44383980  0.77602226
   0.00201680  0.77204344  0.10543266
   0.33244125  0.89459631  0.77327012
   0.23016107  0.00002654  0.10381510
   0.22973478  0.22810984  0.10458662
   0.09830976  0.43639579  0.77396213
   0.66545227  0.11033900  0.44034206
   0.00181619  0.22653710  0.10837871
   0.89793526  0.33490829  0.43752164
   0.33725528  0.89524448  0.56400870
   0.90077480  0.56488717  0.43689885
   0.10267515  0.66582872  0.77208898
   0.33216837  0.43914418  0.56558965
   0.89792345  0.56110847  0.22599244
   0.77592834  0.77365567  0.11006306
   0.67030397  0.55648963  0.43778771
   0.44208790  0.33451258  0.43768520
   0.10824078  0.66473570  0.56252505
   0.22619985  0.00045670  0.89380204
   0.66948289  0.55838292  0.22615459
   0.55639117  0.66404582  0.77994726
   0.99756842  0.22696253  0.89770231
   0.77166214  0.77381121  0.89754643
   0.66709144  0.10451704  0.23147601
   0.22568562  0.22762904  0.89390069
   0.43983864  0.33430435  0.22864719
   0.77075905  0.00005060  0.89952246
   0.57019431  0.90603576  0.56969994
   0.43861615  0.10398323  0.22950631
   0.43455630  0.10386561  0.43843180
Direct configuration=     2
   0.57237200  0.67447083  0.56823660
   0.38739129  0.61215675  0.44997022
   0.42513009  0.70370574  0.45304579
   0.42134344  0.58728409  0.39342835
   0.29583455  0.57272535  0.44566024
   0.01552957  0.33439068  0.83945773
   0.20534914  0.41306330  0.54787328
   0.54880986  0.09560025  0.20324115
   0.87771885  0.76071291  0.86583990
   0.44390804  0.55188579  0.81709586
   0.12289362  0.87972478  0.13070668
   0.09161998  0.54692423  0.80127552
   0.41612632  0.20888127  0.46333631
   0.76287697  0.87992902  0.14038896
   0.22013031  0.78256228  0.53830526
   0.90237523  0.09866575  0.12996498
   0.23741043  0.11992444  0.86655030
   0.87451355  0.43764539  0.45633803
   0.43893602  0.86923982  0.54663051
   0.98549924  0.31586355  0.16802975
   0.65255762  0.01344494  0.50806505
   0.00870340  0.65190263  0.49642808
   0.33558799  0.31529193  0.16552897
   0.98616938  0.66554263  0.16417418
   0.36333331  0.36414745  0.50162765
   0.68496399  0.01670427  0.17089405
   0.66217571  0.98255050  0.84365211
   0.99962406  0.34640412  0.50056727
   0.78524034  0.21985132  0.46281405
   0.33629100  0.01901203  0.16459765
   0.90924278  0.45230674  0.20140283
   0.31094446  0.33222754  0.83089871
   0.44946540  0.90406420  0.80491442
   0.07013620  0.66275425  0.66629271
   0.66342780  0.07072119  0.33675525
   0.99667599  0.74066965  0.99944187
   0.59690837  0.94364108  0.67486819
   0.92959820  0.59579311  0.33098329
   0.25939418  0.26069606  0.99896882
   0.40719786  0.33957482  0.33349387
   0.79225368  0.57332782  0.46622151
   0.74292095  0.99786194  0.00588154
   0.58950561  0.80404610  0.54619689
   0.58001507  0.64448614  0.67831073
   0.26110847  0.00100205  0.99836703
   0.05668747  0.39984551  0.67049999
   0.40200315  0.06730248  0.33362009
   0.35488066  0.42625968  0.66968825
   0.74815662  0.74728067  0.00415452
   0.54912604  0.45133640  0.19852282
   0.87709589  0.12040876  0.87093515
   0.33590764  0.92926881  0.66828890
   0.57489494  0.42313772  0.45290438
   0.67128866  0.58707979  0.33161640
   0.93405147  0.33520250  0.33363763
   0.35116582  0.99811255  0.50114510
   0.31266815  0.98210433  0.83245114
   0.90428065  0.80196660  0.13023855
   0.23161070  0.76551644  0.78932424
   0.12186853  0.23859100  0.13429248
   0.56578265  0.14070737  0.45561174
   0.22756669  0.46389960  0.78358853
   0.20041439  0.09916585  0.12272088
   0.00002258  0.25737496  0.00333662
   0.09690589  0.90133273  0.87598540
   0.80130155  0.90234698  0.87635873
   0.41673868  0.57699413  0.53517948
   0.53429019  0.77014171  0.78934171
   0.76914156  0.53007866  0.20429539
   0.13573272  0.56242151  0.54617753
   0.46769210  0.23321936  0.21459154
   0.64295743  0.63664719  0.49562709
   0.76878732  0.23280796  0.21341531
   0.66042782  0.68389954  0.84434995
   0.01593605  0.68534371  0.83287032
   0.09632323  0.19735888  0.87614328
   0.68627448  0.66500823  0.16724648
   0.56103933  0.89872990  0.77733905
   0.99706359  0.77227746  0.89387175
   0.89809351  0.33324496  0.22918607
   0.77359236  0.99864784  0.11133630
   0.09838999  0.43130761  0.56718663
   0.33430695  0.44376621  0.77606822
   0.00205936  0.77200221  0.10543079
   0.33244897  0.89463018  0.77331655
   0.23023864  0.00007012  0.10382580
   0.22963134  0.22799842  0.10459125
   0.09835566  0.43635822  0.77401289
   0.66548213  0.11039346  0.44028229
   0.00182562  0.22658040  0.10835250
   0.89791587  0.33493792  0.43758713
   0.33721597  0.89521235  0.56402725
   0.90089175  0.56493917  0.43681122
   0.10266543  0.66592343  0.77212192
   0.33205067  0.43901461  0.56555035
   0.89788669  0.56109191  0.22598777
   0.77583019  0.77358431  0.11003604
   0.67026559  0.55649671  0.43777704
   0.44201931  0.33442792  0.43762193
   0.10826265  0.66472701  0.56250679
   0.22620563  0.00041583  0.89379884
   0.66958855  0.55843485  0.22607331
   0.55643421  0.66409304  0.78000020
   0.99757366  0.22694865  0.89772746
   0.77178934  0.77386600  0.89763558
   0.66707167  0.10454711  0.23145262
   0.22570263  0.22770646  0.89386028
   0.43979798  0.33428022  0.22865579
   0.77073570  0.00004232  0.89944370
   0.57014096  0.90599807  0.56974385
   0.43863440  0.10391167  0.22944031
   0.43445137  0.10381149  0.43839479
Direct configuration=     3
   0.57238003  0.67449267  0.56821764
   0.38741247  0.61223929  0.44997156
   0.42512438  0.70360920  0.45302760
   0.42136383  0.58726256  0.39340930
   0.29586626  0.57271168  0.44564135
   0.01552666  0.33438240  0.83946599
   0.20534378  0.41306031  0.54785276
   0.54880043  0.09559351  0.20322936
   0.87773498  0.76070360  0.86584636
   0.44387510  0.55184511  0.81709207
   0.12294574  0.87976472  0.13071487
   0.09162213  0.54696071  0.80127041
   0.41610265  0.20888650  0.46332381
   0.76288413  0.87995632  0.14039676
   0.22012730  0.78254844  0.53829405
   0.90239296  0.09868280  0.12997109
   0.23740856  0.11991332  0.86656840
   0.87452184  0.43761883  0.45633798
   0.43888677  0.86923779  0.54662543
   0.98551527  0.31584262  0.16799770
   0.65254389  0.01344720  0.50807290
   0.00876885  0.65194069  0.49644710
   0.33551971  0.31525076  0.16549266
   0.98616403  0.66550888  0.16418746
   0.36332602  0.36410940  0.50160730
   0.68498029  0.01669673  0.17089160
   0.66215213  0.98254443  0.84364412
   0.99959421  0.34638830  0.50056192
   0.78527019  0.21989563  0.46282360
   0.33628923  0.01899742  0.16458696
   0.90924052  0.45230928  0.20140012
   0.31096644  0.33226414  0.83085961
   0.44942159  0.90406770  0.80492250
   0.07014961  0.66276115  0.66632708
   0.66343040  0.07073191  0.33673122
   0.99667844  0.74066505  0.99939233
   0.59688809  0.94362135  0.67492354
   0.92961595  0.59580557  0.33094829
   0.25939209  0.26070121  0.99897801
   0.40717064  0.33956670  0.33350087
   0.79223375  0.57331954  0.46620260
   0.74292906  0.99787497  0.00587618
   0.58950131  0.80400573  0.54617721
   0.58002414  0.64451657  0.67835163
   0.26111407  0.00099942  0.99834054
   0.05672014  0.39986055  0.67049289
   0.40199959  0.06728803  0.33359072
   0.35487386  0.42627229  0.66970527
   0.74813880  0.74726987  0.00415838
   0.54909573  0.45129686  0.19853875
   0.87710419  0.12040384  0.87092890
   0.33590164  0.92926079  0.66834079
   0.57485231  0.42310737  0.45289765
   0.67129266  0.58708198  0.33162572
   0.93404491  0.33520949  0.33365913
   0.35112074  0.99804375  0.50117302
   0.31269737  0.98209285  0.83241623
   0.90426150  0.80195788  0.13023293
   0.23161590  0.76554175  0.78933773
   0.12185648  0.23859544  0.13429708
   0.56577042  0.14070463  0.45560843
   0.22760048  0.46390607  0.78359912
   0.20040787  0.09916180  0.12273466
   0.00001102  0.25737005  0.00332059
   0.09691516  0.90134948  0.87599878
   0.80128850  0.90237980  0.87636773
   0.41670760  0.57694958  0.53515529
   0.53428899  0.77015549  0.78934966
   0.76919055  0.53008103  0.20428248
   0.13573731  0.56239981  0.54616669
   0.46768563  0.23321222  0.21459480
   0.64295391  0.63667067  0.49564296
   0.76880296  0.23284141  0.21342247
   0.66046174  0.68391580  0.84437108
   0.01594986  0.68531092  0.83281578
   0.09632150  0.19736868  0.87614847
   0.68629557  0.66506059  0.16722575
   0.56106206  0.89871369  0.77730266
   0.99705395  0.77230468  0.89396321
   0.89805784  0.33324590  0.22923002
   0.77358363  0.99862849  0.11132308
   0.09838870  0.43133519  0.56722469
   0.33435433  0.44380311  0.77604968
   0.00204726  0.77201545  0.10543155
   0.33244709  0.89465288  0.77329744
   0.23019502  0.00001108  0.10384612
   0.22968389  0.22803781  0.10460292
   0.09831839  0.43636199  0.77399128
   0.66542871  0.11036689  0.44031044
   0.00181415  0.22657559  0.10838496
   0.89790712  0.33494735  0.43755676
   0.33725342  0.89523639  0.56397202
   0.90086180  0.56495541  0.43680380
   0.10263059  0.66587672  0.77211318
   0.33208645  0.43904385  0.56556368
   0.89790392  0.56110761  0.22597411
   0.77588658  0.77359789  0.11007021
   0.67031985  0.55649080  0.43774375
   0.44203563  0.33444170  0.43762571
   0.10824030  0.66474145  0.56246801
   0.22616416  0.00044636  0.89384680
   0.66955381  0.55840857  0.22611992
   0.55647105  0.66409543  0.77996486
   0.99756129  0.22693807  0.89773107
   0.77171130  0.77380956  0.89763752
   0.66707606  0.10455777  0.23149108
   0.22568036  0.22765071  0.89390588
   0.43985697  0.33430491  0.22864273
   0.77074620  0.00002455  0.89950247
   0.57016870  0.90605628  0.56970308
   0.43864427  0.10393633  0.22946946
   0.43449002  0.10381707  0.43837006
Direct configuration=     4
   0.57237715  0.67449441  0.56822083
   0.38741618  0.61220384  0.44993407
   0.42516465  0.70357436  0.45300664
   0.42137973  0.58724937  0.39340700
   0.29590667  0.57269355  0.44560903
   0.01552886  0.33438793  0.83946370
   0.20535033  0.41306174  0.54782588
   0.54879714  0.09558922  0.20321924
   0.87771694  0.76069266  0.86586842
   0.44391571  0.55186746  0.81708719
   0.12292665  0.87972510  0.13073223
   0.09161789  0.54694978  0.80126537
   0.41607252  0.20885087  0.46329731
   0.76290209  0.87996224  0.14040833
   0.22014113  0.78254378  0.53827254
   0.90238254  0.09866967  0.12998086
   0.23740656  0.11991564  0.86659317
   0.87453276  0.43765409  0.45633257
   0.43889627  0.86924201  0.54660925
   0.98548584  0.31585265  0.16800698
   0.65254190  0.01347326  0.50807276
   0.00876557  0.65195635  0.49641422
   0.33553631  0.31525128  0.16550245
   0.98618751  0.66552446  0.16416912
   0.36330286  0.36407344  0.50160104
   0.68499692  0.01670937  0.17090753
   0.66215752  0.98254339  0.84365539
   0.99956911  0.34638544  0.50057054
   0.78522950  0.21988570  0.46283195
   0.33630690  0.01899172  0.16458581
   0.90923865  0.45230970  0.20139938
   0.31095197  0.33224054  0.83084234
   0.44942911  0.90407073  0.80492546
   0.07016996  0.66276473  0.66630642
   0.66342952  0.07074704  0.33675828
   0.99668480  0.74065137  0.99942812
   0.59686664  0.94359729  0.67489721
   0.92964033  0.59582772  0.33093673
   0.25939582  0.26071102  0.99899558
   0.40713997  0.33955629  0.33348259
   0.79222831  0.57331233  0.46618000
   0.74293393  0.99789401  0.00590003
   0.58949000  0.80402422  0.54614812
   0.58005405  0.64456299  0.67833959
   0.26111830  0.00099344  0.99835934
   0.05675284  0.39987314  0.67049535
   0.40199266  0.06726045  0.33358649
   0.35487709  0.42629592  0.66969472
   0.74811877  0.74725808  0.00419354
   0.54910707  0.45129476  0.19855597
   0.87709738  0.12037483  0.87092227
   0.33589775  0.92924646  0.66830571
   0.57485485  0.42311825  0.45288344
   0.67130061  0.58709079  0.33163518
   0.93404235  0.33522116  0.33366402
   0.35110585  0.99804555  0.50114598
   0.31267248  0.98212536  0.83242661
   0.90428595  0.80195503  0.13023114
   0.23158669  0.76554626  0.78935372
   0.12186810  0.23860095  0.13430043
   0.56576171  0.14070352  0.45560732
   0.22759777  0.46391212  0.78360779
   0.20040169  0.09914805  0.12275169
  -0.00000847  0.25735633  0.00332784
   0.09690361  0.90135959  0.87602847
   0.80126440  0.90236277  0.87638660
   0.41669004  0.57691935  0.53511874
   0.53429126  0.77012689  0.78936031
   0.76919507  0.53008858  0.20426945
   0.13574143  0.56240566  0.54614874
   0.46768340  0.23321556  0.21459940
   0.64297833  0.63665558  0.49562275
   0.76879347  0.23286500  0.21343950
   0.66044882  0.68389582  0.84436962
   0.01592288  0.68532864  0.83280194
   0.09633134  0.19737903  0.87615860
   0.68629906  0.66506153  0.16724315
   0.56102603  0.89869619  0.77732163
   0.99707233  0.77230615  0.89396534
   0.89807175  0.33325509  0.22925094
   0.77359978  0.99864091  0.11130979
   0.09837910  0.43133987  0.56722938
   0.33436843  0.44381807  0.77603851
   0.00205954  0.77201899  0.10542784
   0.33242563  0.89464421  0.77329573
   0.23019776  0.00001049  0.10384434
   0.22967049  0.22803435  0.10460262
   0.09831722  0.43638376  0.77399582
   0.66543145  0.11039170  0.44032341
   0.00181341  0.22656767  0.10838462
   0.89792594  0.33496004  0.43754900
   0.33723319  0.89522650  0.56399567
   0.90088459  0.56497245  0.43679355
   0.10265437  0.66589121  0.77210862
   0.33209842  0.43904239  0.56556702
   0.89792633  0.56110033  0.22595638
   0.77592363  0.77364313  0.11008568
   0.67031673  0.55649372  0.43775031
   0.44201776  0.33444038  0.43762128
   0.10825872  0.66475457  0.56248622
   0.22617522  0.00044685  0.89384724
   0.66955335  0.55840742  0.22612602
   0.55647534  0.66409773  0.77998490
   0.99754728  0.22692609  0.89773716
   0.77168839  0.77380121  0.89765050
   0.66708373  0.10456922  0.23148899
   0.22568085  0.22765128  0.89392082
   0.43982676  0.33428001  0.22863294
   0.77074293  0.00002929  0.89953306
   0.57015985  0.90605625  0.56970455
   0.43864121  0.10393838  0.22945887
   0.43446291  0.10379527  0.43836012
Direct configuration=     5
   0.57238678  0.67450180  0.56819992
   0.38743947  0.61214585  0.44989411
   0.42522755  0.70355536  0.45297656
   0.42140884  0.58722343  0.39338669
   0.29592661  0.57265698  0.44555948
   0.01552841  0.33438734  0.83946446
   0.20535169  0.41306702  0.54779695
   0.54880071  0.09558680  0.20320739
   0.87769997  0.76068194  0.86590661
   0.44394237  0.55186790  0.81708159
   0.12294207  0.87971451  0.13075383
   0.09161217  0.54696674  0.80126188
   0.41603654  0.20883128  0.46325935
   0.76292970  0.87999559  0.14042450
   0.22015581  0.78253566  0.53824785
   0.90239132  0.09867073  0.12999293
   0.23740434  0.11991887  0.86662658
   0.87455004  0.43767390  0.45632272
   0.43889350  0.86924956  0.54659086
   0.98546089  0.31584562  0.16800444
   0.65253354  0.01348949  0.50808785
   0.00879709  0.65199220  0.49639690
   0.33553565  0.31524479  0.16549935
   0.98621235  0.66552869  0.16415171
   0.36326161  0.36403858  0.50161211
   0.68502819  0.01672664  0.17092261
   0.66215276  0.98253031  0.84366715
   0.99955684  0.34639116  0.50059698
   0.78523843  0.21993604  0.46283986
   0.33631147  0.01897803  0.16457338
   0.90924163  0.45229296  0.20139701
   0.31092932  0.33221154  0.83082193
   0.44939887  0.90407073  0.80492793
   0.07019490  0.66277046  0.66630512
   0.66342864  0.07076931  0.33677142
   0.99669506  0.74063276  0.99943740
   0.59683256  0.94356015  0.67490208
   0.92967204  0.59585456  0.33092070
   0.25940331  0.26072643  0.99900783
   0.40710165  0.33954249  0.33347166
   0.79224204  0.57330512  0.46615328
   0.74293273  0.99791960  0.00591809
   0.58947401  0.80402993  0.54610832
   0.58009190  0.64462311  0.67833564
   0.26112343  0.00098436  0.99837223
   0.05678700  0.39988718  0.67050430
   0.40198390  0.06722458  0.33357239
   0.35489081  0.42632813  0.66968875
   0.74809446  0.74724881  0.00421703
   0.54911097  0.45128187  0.19857757
   0.87709933  0.12034801  0.87091746
   0.33588764  0.92923067  0.66831292
   0.57484201  0.42311769  0.45286507
   0.67131059  0.58710288  0.33163727
   0.93405131  0.33523711  0.33366908
   0.35107569  0.99802246  0.50112796
   0.31266598  0.98213786  0.83240580
   0.90431405  0.80196171  0.13023274
   0.23157213  0.76557136  0.78937597
   0.12186589  0.23860872  0.13430633
   0.56573223  0.14070325  0.45560784
   0.22759766  0.46392305  0.78361798
   0.20039555  0.09914328  0.12277096
  -0.00003591  0.25733609  0.00334121
   0.09689386  0.90137651  0.87606919
   0.80122886  0.90233633  0.87641714
   0.41669244  0.57689332  0.53508265
   0.53429169  0.77012522  0.78937725
   0.76920347  0.53010213  0.20425615
   0.13574316  0.56242042  0.54612893
   0.46768154  0.23321110  0.21460271
   0.64298463  0.63666980  0.49563421
   0.76878286  0.23289612  0.21346516
   0.66043859  0.68386780  0.84437437
   0.01590791  0.68534595  0.83277062
   0.09633452  0.19739102  0.87617607
   0.68631918  0.66507810  0.16726345
   0.56102391  0.89868055  0.77733188
   0.99706428  0.77229877  0.89397377
   0.89806861  0.33326438  0.22925582
   0.77360328  0.99864665  0.11133725
   0.09838534  0.43133571  0.56720790
   0.33436711  0.44382178  0.77604753
   0.00207207  0.77200889  0.10543719
   0.33241456  0.89466527  0.77330231
   0.23019681 -0.00000376  0.10386182
   0.22966134  0.22801389  0.10461624
   0.09833348  0.43638017  0.77400840
   0.66542078  0.11041267  0.44032737
   0.00180821  0.22657263  0.10839620
   0.89789288  0.33495843  0.43756870
   0.33722939  0.89522225  0.56397017
   0.90090284  0.56499744  0.43676661
   0.10263606  0.66589527  0.77211062
   0.33208179  0.43902001  0.56553706
   0.89794315  0.56111602  0.22593907
   0.77593709  0.77364849  0.11011368
   0.67031085  0.55647723  0.43774267
   0.44200066  0.33441758  0.43759749
   0.10826428  0.66475789  0.56246227
   0.22616868  0.00044752  0.89386935
   0.66957502  0.55842011  0.22612645
   0.55649137  0.66409529  0.77998652
   0.99753945  0.22692227  0.89773296
   0.77168319  0.77379370  0.89768780
   0.66708644  0.10458160  0.23150071
   0.22569468  0.22767903  0.89392825
   0.43981335  0.33427261  0.22863801
   0.77072352  0.00002124  0.89954451
   0.57014788  0.90605846  0.56968873
   0.43864419  0.10393300  0.22945086
   0.43444041  0.10377252  0.43834603
Direct configuration=     6
   0.57238835  0.67451658  0.56819042
   0.38746422  0.61213908  0.44987731
   0.42526663  0.70352399  0.45294759
   0.42144292  0.58718982  0.39335008
   0.29593660  0.57262675  0.44551673
   0.01552437  0.33438320  0.83946831
   0.20534619  0.41306953  0.54777496
   0.54880748  0.09558560  0.20319932
   0.87769560  0.76067571  0.86593808
   0.44394061  0.55184605  0.81707857
   0.12295708  0.87971035  0.13077020
   0.09160726  0.54696235  0.80126156
   0.41601003  0.20881442  0.46322930
   0.76295221  0.87999997  0.14043880
   0.22016430  0.78252911  0.53822938
   0.90240511  0.09867641  0.13000431
   0.23740274  0.11992769  0.86665297
   0.87456502  0.43770146  0.45631511
   0.43889059  0.86925687  0.54657577
   0.98544755  0.31583758  0.16800100
   0.65253532  0.01351800  0.50809383
   0.00880832  0.65201345  0.49637869
   0.33553154  0.31524007  0.16549452
   0.98622654  0.66551155  0.16414847
   0.36324695  0.36399634  0.50160235
   0.68504045  0.01675014  0.17094787
   0.66213628  0.98251673  0.84367110
   0.99953151  0.34638517  0.50060743
   0.78520492  0.21993726  0.46284971
   0.33632139  0.01897241  0.16456786
   0.90924658  0.45231341  0.20139296
   0.31092224  0.33220786  0.83080021
   0.44940098  0.90407050  0.80492959
   0.07021465  0.66277687  0.66629313
   0.66342840  0.07078704  0.33677565
   0.99670507  0.74061908  0.99943149
   0.59680485  0.94352904  0.67490706
   0.92969676  0.59587534  0.33090007
   0.25940891  0.26073826  0.99901499
   0.40707097  0.33953283  0.33347356
   0.79224295  0.57330071  0.46613522
   0.74293084  0.99793895  0.00593058
   0.58946021  0.80402540  0.54607723
   0.58011968  0.64466836  0.67832716
   0.26112746  0.00097698  0.99838452
   0.05681644  0.39990099  0.67049926
   0.40197774  0.06719753  0.33356105
   0.35489700  0.42635462  0.66968115
   0.74807700  0.74724349  0.00424383
   0.54912399  0.45128243  0.19859509
   0.87710639  0.12033481  0.87091467
   0.33587803  0.92921742  0.66830064
   0.57481692  0.42310320  0.45285122
   0.67131879  0.58711243  0.33163240
   0.93405779  0.33524780  0.33368449
   0.35105307  0.99800992  0.50111351
   0.31265144  0.98215885  0.83240118
   0.90432313  0.80196976  0.13023633
   0.23155509  0.76558622  0.78939428
   0.12186442  0.23861462  0.13431144
   0.56571642  0.14070594  0.45561024
   0.22761674  0.46393562  0.78363096
   0.20039088  0.09912865  0.12278413
  -0.00005762  0.25732008  0.00333795
   0.09687721  0.90137800  0.87610025
   0.80120068  0.90231725  0.87644297
   0.41670656  0.57687255  0.53506464
   0.53428956  0.77012208  0.78939416
   0.76922212  0.53011534  0.20424726
   0.13574144  0.56241332  0.54611594
   0.46767804  0.23320347  0.21460605
   0.64299924  0.63666483  0.49563018
   0.76876302  0.23290636  0.21348590
   0.66045487  0.68385919  0.84439274
   0.01588962  0.68536356  0.83275351
   0.09633883  0.19740139  0.87619038
   0.68633487  0.66509273  0.16728159
   0.56100856  0.89867471  0.77733860
   0.99705555  0.77229590  0.89398272
   0.89806265  0.33325845  0.22926175
   0.77361561  0.99866254  0.11135170
   0.09840054  0.43135031  0.56720646
   0.33436638  0.44382194  0.77604922
   0.00209087  0.77201330  0.10543643
   0.33240744  0.89466912  0.77330244
   0.23019447 -0.00000851  0.10387169
   0.22965290  0.22800709  0.10462532
   0.09833829  0.43638993  0.77401477
   0.66541917  0.11043093  0.44033850
   0.00180288  0.22657450  0.10840464
   0.89790600  0.33498360  0.43757314
   0.33722759  0.89521980  0.56396488
   0.90092845  0.56501452  0.43675357
   0.10263434  0.66590771  0.77210740
   0.33206891  0.43900680  0.56553043
   0.89794828  0.56111643  0.22593005
   0.77594256  0.77365340  0.11012652
   0.67030505  0.55647884  0.43774686
   0.44197880  0.33440523  0.43758596
   0.10826869  0.66476039  0.56245024
   0.22617372  0.00045134  0.89388281
   0.66957821  0.55841860  0.22612772
   0.55650811  0.66410557  0.77997951
   0.99753276  0.22691852  0.89774075
   0.77166666  0.77377516  0.89770941
   0.66709184  0.10459349  0.23150525
   0.22569372  0.22768466  0.89393855
   0.43981626  0.33427448  0.22863982
   0.77071546  0.00001267  0.89955316
   0.57013636  0.90605151  0.56968655
   0.43864556  0.10392352  0.22944361
   0.43440875  0.10375518  0.43833118
Direct configuration=     7
   0.57239388  0.67453079  0.56817158
   0.38749462  0.61209522  0.44981858
   0.42533211  0.70347980  0.45289889
   0.42148658  0.58714361  0.39331368
   0.29598191  0.57259098  0.44544903
   0.01552407  0.33438553  0.83946913
   0.20534766  0.41306988  0.54773398
   0.54880808  0.09558275  0.20318366
   0.87767670  0.76066498  0.86598577
   0.44397464  0.55184536  0.81706910
   0.12297203  0.87969343  0.13079674
   0.09160124  0.54697628  0.80126022
   0.41596196  0.20877965  0.46318255
   0.76298634  0.88002879  0.14046173
   0.22017492  0.78251517  0.53819944
   0.90241979  0.09867775  0.13002618
   0.23740011  0.11992965  0.86669487
   0.87458920  0.43773743  0.45630606
   0.43888830  0.86926739  0.54655110
   0.98542323  0.31583552  0.16800319
   0.65252303  0.01353680  0.50812144
   0.00883606  0.65205301  0.49635471
   0.33553411  0.31523524  0.16549303
   0.98625963  0.66550860  0.16412874
   0.36320664  0.36394017  0.50160273
   0.68507243  0.01677130  0.17097411
   0.66212004  0.98250493  0.84368248
   0.99950542  0.34638149  0.50063371
   0.78519802  0.21998874  0.46286444
   0.33633694  0.01896186  0.16455820
   0.90925279  0.45230449  0.20138815
   0.31090638  0.33218785  0.83077322
   0.44938150  0.90407105  0.80493475
   0.07024687  0.66278820  0.66627641
   0.66342755  0.07081609  0.33678798
   0.99672288  0.74059772  0.99944193
   0.59676155  0.94347817  0.67490412
   0.92973676  0.59590930  0.33087982
   0.25941504  0.26075571  0.99903530
   0.40701945  0.33951892  0.33345517
   0.79224053  0.57329163  0.46610278
   0.74293300  0.99797132  0.00595625
   0.58943838  0.80402407  0.54602517
   0.58016628  0.64474283  0.67831718
   0.26113501  0.00096542  0.99840071
   0.05687055  0.39992668  0.67049654
   0.40196537  0.06715197  0.33353616
   0.35489868  0.42639444  0.66966819
   0.74804517  0.74723009  0.00427859
   0.54913210  0.45127138  0.19861959
   0.87710679  0.12030344  0.87090905
   0.33586197  0.92919490  0.66829082
   0.57478496  0.42309141  0.45282809
   0.67133075  0.58712435  0.33163763
   0.93406358  0.33526328  0.33369110
   0.35100897  0.99798076  0.50109740
   0.31264012  0.98218446  0.83238265
   0.90434670  0.80197546  0.13023708
   0.23152893  0.76561183  0.78942547
   0.12186240  0.23862376  0.13431960
   0.56567933  0.14070566  0.45561200
   0.22762813  0.46395595  0.78365526
   0.20038087  0.09911615  0.12280502
  -0.00009185  0.25729733  0.00334762
   0.09686733  0.90139460  0.87614950
   0.80115723  0.90228821  0.87648366
   0.41672055  0.57683233  0.53503290
   0.53428555  0.77010466  0.78942357
   0.76924149  0.53013478  0.20423057
   0.13574077  0.56240820  0.54609176
   0.46766927  0.23319729  0.21461331
   0.64301395  0.63667050  0.49563827
   0.76875355  0.23294540  0.21351588
   0.66044963  0.68383130  0.84440476
   0.01586579  0.68537774  0.83271276
   0.09634573  0.19741923  0.87621214
   0.68635232  0.66511246  0.16731043
   0.56098555  0.89865676  0.77734615
   0.99705457  0.77230813  0.89400554
   0.89805272  0.33327392  0.22928572
   0.77362653  0.99867108  0.11136181
   0.09839835  0.43136310  0.56721127
   0.33437860  0.44382824  0.77603001
   0.00210828  0.77200234  0.10543532
   0.33239836  0.89468848  0.77330138
   0.23019803 -0.00001708  0.10388133
   0.22964577  0.22800415  0.10462927
   0.09834055  0.43640027  0.77401634
   0.66538715  0.11044502  0.44034752
   0.00180354  0.22657196  0.10840120
   0.89789680  0.33499316  0.43757633
   0.33722013  0.89521886  0.56395267
   0.90094656  0.56505021  0.43672410
   0.10262520  0.66590872  0.77210197
   0.33207430  0.43898433  0.56552045
   0.89796019  0.56112254  0.22591993
   0.77597224  0.77367288  0.11015120
   0.67031040  0.55646111  0.43773159
   0.44195491  0.33438969  0.43757522
   0.10827949  0.66476937  0.56243271
   0.22615570  0.00045980  0.89391014
   0.66959073  0.55841892  0.22614137
   0.55652660  0.66410991  0.77999151
   0.99752076  0.22690663  0.89774862
   0.77164124  0.77374734  0.89775152
   0.66708848  0.10461264  0.23153063