 running on   48 total cores
 distrk:  each k-point on   48 cores,    1 groups
 distr:  one band on    6 cores,    8 groups
 using from now: INCAR     
 vasp.5.4.1 05Feb16 (build Feb 08 2018 09:21:51) complex                        
  
 POSCAR found :  5 types and     112 ions
 LDA part: xc-table for Pade appr. of Perdew
 POSCAR, INCAR and KPOINTS ok, starting setup
 WARNING: small aliasing (wrap around) errors must be expected
 FFT: planning ...
 WAVECAR not read
 entering main loop
       N       E                     dE             d eps       ncg     rms          rms(c)
DAV:   1     0.442134040029E+04    0.44213E+04   -0.24497E+05   760   0.116E+03
DAV:   2    -0.422702990459E+03   -0.48440E+04   -0.47468E+04   880   0.325E+02
DAV:   3    -0.976404478422E+03   -0.55370E+03   -0.55165E+03   816   0.119E+02
DAV:   4    -0.989256413135E+03   -0.12852E+02   -0.12814E+02   832   0.196E+01
DAV:   5    -0.989658180240E+03   -0.40177E+00   -0.40133E+00   832   0.312E+00    0.856E+01
DAV:   6    -0.873775555621E+03    0.11588E+03   -0.50654E+02   800   0.353E+01    0.397E+01
DAV:   7    -0.873259616612E+03    0.51594E+00   -0.16208E+01   912   0.595E+00    0.150E+01
DAV:   8    -0.872785065981E+03    0.47455E+00   -0.11100E+00   824   0.225E+00    0.600E+00
DAV:   9    -0.872647023234E+03    0.13804E+00   -0.44476E-01   832   0.145E+00    0.102E+00
DAV:  10    -0.872648638948E+03   -0.16157E-02   -0.83138E-02   808   0.622E-01    0.664E-01
DAV:  11    -0.872649679105E+03   -0.10402E-02   -0.19519E-02   792   0.291E-01    0.296E-01
DAV:  12    -0.872656099226E+03   -0.64201E-02   -0.70143E-03   776   0.216E-01    0.145E-01
DAV:  13    -0.872667316980E+03   -0.11218E-01   -0.44996E-03   808   0.191E-01    0.177E-01
DAV:  14    -0.872676419359E+03   -0.91024E-02   -0.26178E-03   800   0.126E-01    0.576E-02
DAV:  15    -0.872678440182E+03   -0.20208E-02   -0.51103E-04   816   0.527E-02    0.572E-02
DAV:  16    -0.872678963570E+03   -0.52339E-03   -0.15230E-04   808   0.272E-02    0.420E-02
DAV:  17    -0.872679193430E+03   -0.22986E-03   -0.82726E-05   816   0.169E-02    0.204E-02
DAV:  18    -0.872679572690E+03   -0.37926E-03   -0.35512E-05   776   0.106E-02    0.944E-03
DAV:  19    -0.872679607890E+03   -0.35201E-04   -0.10005E-05   768   0.762E-03    0.751E-03
DAV:  20    -0.872679622090E+03   -0.14199E-04   -0.37207E-06   664   0.411E-03    0.424E-03
DAV:  21    -0.872679641634E+03   -0.19544E-04   -0.16036E-06   544   0.251E-03    0.229E-03
DAV:  22    -0.872679646295E+03   -0.46612E-05   -0.12588E-06   528   0.234E-03    0.994E-04
DAV:  23    -0.872679646656E+03   -0.36114E-06   -0.27326E-07   520   0.107E-03
   1 F= -.88273962E+03 E0= -.88273962E+03  d E =-.558489E-13
Running "mpirun -np 48 vasp"
