 112 112   0   0
  0.2170079E+02  0.1372957E-08  0.1373220E-08  0.1489038E-08  0.5000000E-15
  1.000000000000000E-004
  CAR 
 unknown system                          
      8.28952291    -24.02921135  301     -2.34872711      1.00000000
    -24.029  0.0000E+00  0.0000E+00
    -23.921  0.0000E+00  0.0000E+00
    -23.814  0.0000E+00  0.0000E+00
    -23.706  0.0000E+00  0.0000E+00
    -23.598  0.0000E+00  0.0000E+00
    -23.491  0.0000E+00  0.0000E+00
    -23.383  0.0000E+00  0.0000E+00
    -23.275  0.0000E+00  0.0000E+00
    -23.167  0.0000E+00  0.0000E+00
    -23.060  0.0000E+00  0.0000E+00
    -22.952  0.0000E+00  0.0000E+00
    -22.844  0.0000E+00  0.0000E+00
    -22.736  0.0000E+00  0.0000E+00
    -22.629  0.0000E+00  0.0000E+00
    -22.521  0.1857E+02  0.2000E+01
    -22.413  0.0000E+00  0.2000E+01
    -22.306  0.0000E+00  0.2000E+01
    -22.198  0.0000E+00  0.2000E+01
    -22.090  0.0000E+00  0.2000E+01
    -21.982  0.1857E+02  0.4000E+01
    -21.875  0.1930E+00  0.4021E+01
    -21.767  0.1872E+02  0.8017E+01
    -21.659  0.3713E+02  0.1400E+02
    -21.551  0.2037E+02  0.1619E+02
    -21.444  0.3240E+02  0.2149E+02
    -21.336  0.2569E+02  0.2477E+02
    -21.228  0.3737E+02  0.3203E+02
    -21.121  0.1857E+02  0.3600E+02
    -21.013  0.1028E+02  0.3911E+02
    -20.905  0.6626E+02  0.4714E+02
    -20.797  0.3935E+02  0.5224E+02
    -20.690  0.1722E-01  0.5400E+02
    -20.582  0.1857E+02  0.5800E+02
    -20.474  0.4230E+02  0.6256E+02
    -20.366  0.3689E+02  0.6797E+02
    -20.259  0.1873E+02  0.7202E+02
    -20.151  0.2946E+02  0.7717E+02
    -20.043  0.1201E+03  0.9294E+02
    -19.936  0.1856E+03  0.1240E+03
    -19.828  0.7802E+02  0.1324E+03
    -19.720  0.3699E+02  0.1380E+03
    -19.612  0.0000E+00  0.1380E+03
    -19.505  0.0000E+00  0.1380E+03
    -19.397  0.0000E+00  0.1380E+03
    -19.289  0.1567E+02  0.1397E+03
    -19.181  0.0000E+00  0.1400E+03
    -19.074  0.0000E+00  0.1400E+03
    -18.966  0.1857E+02  0.1420E+03
    -18.858  0.1856E+02  0.1440E+03
    -18.750  0.0000E+00  0.1440E+03
    -18.643  0.0000E+00  0.1440E+03
    -18.535  0.0000E+00  0.1440E+03
    -18.427  0.0000E+00  0.1440E+03
    -18.320  0.0000E+00  0.1440E+03
    -18.212  0.0000E+00  0.1440E+03
    -18.104  0.0000E+00  0.1440E+03
    -17.996  0.0000E+00  0.1440E+03
    -17.889  0.0000E+00  0.1440E+03
    -17.781  0.0000E+00  0.1440E+03
    -17.673  0.0000E+00  0.1440E+03
    -17.565  0.0000E+00  0.1440E+03
    -17.458  0.0000E+00  0.1440E+03
    -17.350  0.0000E+00  0.1440E+03
    -17.242  0.0000E+00  0.1440E+03
    -17.135  0.0000E+00  0.1440E+03
    -17.027  0.0000E+00  0.1440E+03
    -16.919  0.0000E+00  0.1440E+03
    -16.811  0.0000E+00  0.1440E+03
    -16.704  0.0000E+00  0.1440E+03
    -16.596  0.0000E+00  0.1440E+03
    -16.488  0.0000E+00  0.1440E+03
    -16.380  0.0000E+00  0.1440E+03
    -16.273  0.0000E+00  0.1440E+03
    -16.165  0.0000E+00  0.1440E+03
    -16.057  0.0000E+00  0.1440E+03
    -15.950  0.0000E+00  0.1440E+03
    -15.842  0.0000E+00  0.1440E+03
    -15.734  0.0000E+00  0.1440E+03
    -15.626  0.0000E+00  0.1440E+03
    -15.519  0.0000E+00  0.1440E+03
    -15.411  0.0000E+00  0.1440E+03
    -15.303  0.0000E+00  0.1440E+03
    -15.195  0.0000E+00  0.1440E+03
    -15.088  0.0000E+00  0.1440E+03
    -14.980  0.0000E+00  0.1440E+03
    -14.872  0.0000E+00  0.1440E+03
    -14.765  0.0000E+00  0.1440E+03
    -14.657  0.0000E+00  0.1440E+03
    -14.549  0.0000E+00  0.1440E+03
    -14.441  0.0000E+00  0.1440E+03
    -14.334  0.0000E+00  0.1440E+03
    -14.226  0.0000E+00  0.1440E+03
    -14.118  0.0000E+00  0.1440E+03
    -14.010  0.0000E+00  0.1440E+03
    -13.903  0.0000E+00  0.1440E+03
    -13.795  0.0000E+00  0.1440E+03
    -13.687  0.0000E+00  0.1440E+03
    -13.579  0.0000E+00  0.1440E+03
    -13.472  0.0000E+00  0.1440E+03
    -13.364  0.1854E+02  0.1460E+03
    -13.256  0.0000E+00  0.1460E+03
    -13.149  0.0000E+00  0.1460E+03
    -13.041  0.0000E+00  0.1460E+03
    -12.933  0.0000E+00  0.1460E+03
    -12.825  0.0000E+00  0.1460E+03
    -12.718  0.0000E+00  0.1460E+03
    -12.610  0.0000E+00  0.1460E+03
    -12.502  0.0000E+00  0.1460E+03
    -12.394  0.0000E+00  0.1460E+03
    -12.287  0.0000E+00  0.1460E+03
    -12.179  0.1857E+02  0.1480E+03
    -12.071  0.0000E+00  0.1480E+03
    -11.964  0.0000E+00  0.1480E+03
    -11.856  0.0000E+00  0.1480E+03
    -11.748  0.8388E-09  0.1480E+03
    -11.640  0.3713E+02  0.1520E+03
    -11.533  0.0000E+00  0.1520E+03
    -11.425  0.7562E+01  0.1528E+03
    -11.317  0.1758E+02  0.1579E+03
    -11.209  0.3919E-09  0.1580E+03
    -11.102  0.1857E+02  0.1600E+03
    -10.994  0.1967E+02  0.1621E+03
    -10.886  0.0000E+00  0.1640E+03
    -10.779  0.0000E+00  0.1640E+03
    -10.671  0.1856E+02  0.1660E+03
    -10.563  0.7312E+02  0.1739E+03
    -10.455  0.3685E+02  0.1780E+03
    -10.348  0.1390E+02  0.1795E+03
    -10.240  0.1649E-05  0.1800E+03
    -10.132  0.2666E+02  0.1829E+03
    -10.024  0.0000E+00  0.1840E+03
     -9.917  0.0000E+00  0.1840E+03
     -9.809  0.2693E+02  0.1869E+03
     -9.701  0.1857E+02  0.1900E+03
     -9.594  0.3706E+02  0.1940E+03
     -9.486  0.3626E+02  0.1979E+03
     -9.378  0.0000E+00  0.1980E+03
     -9.270  0.5755E-04  0.1980E+03
     -9.163  0.1861E+02  0.2000E+03
     -9.055  0.0000E+00  0.2020E+03
     -8.947  0.1857E+02  0.2040E+03
     -8.839  0.0000E+00  0.2040E+03
     -8.732  0.1211E-02  0.2040E+03
     -8.624  0.3713E+02  0.2100E+03
     -8.516  0.3062E+02  0.2133E+03
     -8.408  0.1956E+02  0.2181E+03
     -8.301  0.3958E+02  0.2243E+03
     -8.193  0.4880E+02  0.2313E+03
     -8.085  0.3128E+02  0.2394E+03
     -7.978  0.3686E+02  0.2460E+03
     -7.870  0.8601E+02  0.2553E+03
     -7.762  0.5574E+02  0.2640E+03
     -7.654  0.4824E+02  0.2712E+03
     -7.547  0.1858E+02  0.2740E+03
     -7.439  0.1865E+02  0.2780E+03
     -7.331  0.6662E+01  0.2807E+03
     -7.223  0.3713E+02  0.2860E+03
     -7.116  0.1815E+02  0.2880E+03
     -7.008  0.1857E+02  0.2900E+03
     -6.900  0.0000E+00  0.2900E+03
     -6.793  0.0000E+00  0.2900E+03
     -6.685  0.0000E+00  0.2900E+03
     -6.577  0.8420E+01  0.2909E+03
     -6.469  0.0000E+00  0.2920E+03
     -6.362  0.1857E+02  0.2940E+03
     -6.254  0.3918E+02  0.2982E+03
     -6.146  0.2061E-14  0.3000E+03
     -6.038  0.3716E+02  0.3040E+03
     -5.931  0.6993E+02  0.3135E+03
     -5.823  0.7830E+02  0.3224E+03
     -5.715  0.3711E+02  0.3300E+03
     -5.608  0.6813E+02  0.3373E+03
     -5.500  0.3712E+02  0.3420E+03
     -5.392  0.1860E+02  0.3440E+03
     -5.284  0.1284E-02  0.3460E+03
     -5.177  0.3712E+02  0.3520E+03
     -5.069  0.5596E+02  0.3580E+03
     -4.961  0.7334E+02  0.3679E+03
     -4.853  0.5398E+02  0.3758E+03
     -4.746  0.1857E+02  0.3800E+03
     -4.638  0.7076E+02  0.3876E+03
     -4.530  0.8236E+02  0.4009E+03
     -4.423  0.1244E+03  0.4194E+03
     -4.315  0.1120E+03  0.4381E+03
     -4.207  0.1391E+03  0.4550E+03
     -4.099  0.8649E+02  0.4653E+03
     -3.992  0.8152E+02  0.4768E+03
     -3.884  0.1003E+03  0.4928E+03
     -3.776  0.7402E+02  0.5040E+03
     -3.668  0.7387E+02  0.5160E+03
     -3.561  0.5561E+02  0.5220E+03
     -3.453  0.1908E+02  0.5241E+03
     -3.345  0.4055E+01  0.5264E+03
     -3.237  0.5632E+02  0.5341E+03
     -3.130  0.7403E+02  0.5440E+03
     -3.022  0.5289E+02  0.5517E+03
     -2.914  0.6556E+02  0.5611E+03
     -2.807  0.7369E+02  0.5699E+03
     -2.699  0.5570E+02  0.5760E+03
     -2.591  0.1857E+02  0.5780E+03
     -2.483  0.1856E+02  0.5800E+03
     -2.376  0.1856E+02  0.5820E+03
     -2.268  0.0000E+00  0.5820E+03
     -2.160  0.0000E+00  0.5820E+03
     -2.052  0.0000E+00  0.5820E+03
     -1.945  0.0000E+00  0.5820E+03
     -1.837  0.0000E+00  0.5820E+03
     -1.729  0.0000E+00  0.5820E+03
     -1.622  0.0000E+00  0.5820E+03
     -1.514  0.0000E+00  0.5820E+03
     -1.406  0.0000E+00  0.5820E+03
     -1.298  0.0000E+00  0.5820E+03
     -1.191  0.0000E+00  0.5820E+03
     -1.083  0.0000E+00  0.5820E+03
     -0.975  0.0000E+00  0.5820E+03
     -0.867  0.0000E+00  0.5820E+03
     -0.760  0.0000E+00  0.5820E+03
     -0.652  0.0000E+00  0.5820E+03
     -0.544  0.0000E+00  0.5820E+03
     -0.437  0.0000E+00  0.5820E+03
     -0.329  0.0000E+00  0.5820E+03
     -0.221  0.0000E+00  0.5820E+03
     -0.113  0.0000E+00  0.5820E+03
     -0.006  0.0000E+00  0.5820E+03
      0.102  0.0000E+00  0.5820E+03
      0.210  0.0000E+00  0.5820E+03
      0.318  0.0000E+00  0.5820E+03
      0.425  0.0000E+00  0.5820E+03
      0.533  0.0000E+00  0.5820E+03
      0.641  0.0000E+00  0.5820E+03
      0.748  0.0000E+00  0.5820E+03
      0.856  0.0000E+00  0.5820E+03
      0.964  0.0000E+00  0.5820E+03
      1.072  0.0000E+00  0.5820E+03
      1.179  0.0000E+00  0.5820E+03
      1.287  0.0000E+00  0.5820E+03
      1.395  0.0000E+00  0.5820E+03
      1.503  0.0000E+00  0.5820E+03
      1.610  0.0000E+00  0.5820E+03
      1.718  0.0000E+00  0.5820E+03
      1.826  0.0000E+00  0.5820E+03
      1.934  0.0000E+00  0.5820E+03
      2.041  0.0000E+00  0.5820E+03
      2.149  0.0000E+00  0.5820E+03
      2.257  0.0000E+00  0.5820E+03
      2.364  0.0000E+00  0.5820E+03
      2.472  0.0000E+00  0.5820E+03
      2.580  0.0000E+00  0.5820E+03
      2.688  0.0000E+00  0.5820E+03
      2.795  0.0000E+00  0.5820E+03
      2.903  0.1746E+00  0.5820E+03
      3.011  0.0000E+00  0.5840E+03
      3.119  0.0000E+00  0.5840E+03
      3.226  0.0000E+00  0.5840E+03
      3.334  0.0000E+00  0.5840E+03
      3.442  0.0000E+00  0.5840E+03
      3.549  0.0000E+00  0.5840E+03
      3.657  0.1832E+02  0.5860E+03
      3.765  0.1430E-04  0.5860E+03
      3.873  0.1857E+02  0.5880E+03
      3.980  0.0000E+00  0.5880E+03
      4.088  0.1623E-10  0.5880E+03
      4.196  0.1857E+02  0.5900E+03
      4.304  0.3710E+02  0.5940E+03
      4.411  0.1654E-06  0.5960E+03
      4.519  0.1857E+02  0.5980E+03
      4.627  0.1039E+02  0.5991E+03
      4.734  0.1857E+02  0.6020E+03
      4.842  0.0000E+00  0.6020E+03
      4.950  0.6182E-04  0.6020E+03
      5.058  0.4184E+02  0.6065E+03
      5.165  0.5465E+02  0.6139E+03
      5.273  0.5570E+02  0.6220E+03
      5.381  0.0000E+00  0.6240E+03
      5.489  0.1857E+02  0.6260E+03
      5.596  0.1439E-04  0.6260E+03
      5.704  0.1857E+02  0.6280E+03
      5.812  0.1963E+02  0.6301E+03
      5.919  0.1857E+02  0.6340E+03
      6.027  0.2069E+02  0.6362E+03
      6.135  0.2689E+02  0.6409E+03
      6.243  0.5152E+02  0.6495E+03
      6.350  0.5740E+02  0.6582E+03
      6.458  0.4377E+02  0.6667E+03
      6.566  0.7812E+02  0.6764E+03
      6.674  0.5643E+02  0.6881E+03
      6.781  0.9037E+02  0.6997E+03
      6.889  0.1857E+02  0.7040E+03
      6.997  0.0000E+00  0.7040E+03
      7.105  0.0000E+00  0.7040E+03
      7.212  0.0000E+00  0.7040E+03
      7.320  0.0000E+00  0.7040E+03
      7.428  0.0000E+00  0.7040E+03
      7.535  0.0000E+00  0.7040E+03
      7.643  0.0000E+00  0.7040E+03
      7.751  0.0000E+00  0.7040E+03
      7.859  0.0000E+00  0.7040E+03
      7.966  0.0000E+00  0.7040E+03
      8.074  0.0000E+00  0.7040E+03
      8.182  0.0000E+00  0.7040E+03
      8.290  0.0000E+00  0.7040E+03
