unknown system                          
           1
    13.729572   -0.004625   -0.001411
    -6.868739   11.890915    0.001820
    -0.001511    0.001307   14.890378
   Al   C    H    O    Si
   1   1   3  72  35
Direct configuration=     1
   0.56594165  0.66515664  0.56715631
   0.57466825  0.79411746  0.41782532
   0.61934277  0.87985634  0.39116819
   0.61634670  0.74797082  0.39610437
   0.48574356  0.75008684  0.39819690
   0.01904334  0.33323389  0.83554304
   0.20931605  0.41998286  0.53761097
   0.55024609  0.09417217  0.20438459
   0.88042770  0.76136546  0.86614851
   0.45339173  0.54649136  0.79880449
   0.12510669  0.87810439  0.13275670
   0.09448714  0.54747575  0.80217305
   0.41871627  0.21046776  0.46326784
   0.76536803  0.88148748  0.13701910
   0.21733434  0.78320120  0.53487078
   0.90219023  0.09993356  0.12362546
   0.24212949  0.12124811  0.86673290
   0.87805987  0.43865509  0.45299802
   0.43567778  0.86905500  0.54708775
   0.98436061  0.31564251  0.16654480
   0.65166194  0.01499182  0.51186617
   0.00416058  0.65301674  0.50007211
   0.33634758  0.31418455  0.16567741
   0.98512815  0.66280808  0.16223105
   0.35464710  0.35593065  0.49995249
   0.68735946  0.01628028  0.17241014
   0.66809969  0.98406009  0.83481606
   0.99807725  0.34476921  0.50444789
   0.78564037  0.22059292  0.46317396
   0.33879009  0.01924797  0.16390906
   0.90771907  0.45108710  0.20534645
   0.31541664  0.33479533  0.83593258
   0.45616089  0.91129396  0.79463677
   0.07512992  0.66544467  0.66721707
   0.66321909  0.06762470  0.33889244
   0.00021342  0.74301926  0.99937666
   0.59472044  0.90906972  0.67024753
   0.93691854  0.60169489  0.33141654
   0.25845273  0.25704404  0.00097073
   0.40828408  0.33724863  0.33258531
   0.78953436  0.56739153  0.46165418
   0.73669354  0.99658268  0.00362352
   0.58131532  0.79946369  0.51748713
   0.60274226  0.69002952  0.67771007
   0.26111445  0.00051625  0.99929707
   0.07033180  0.40669322  0.66954227
   0.40348604  0.06895554  0.33263819
   0.33167507  0.40173534  0.66801885
   0.74964254  0.74362559  0.00486400
   0.55048180  0.45258649  0.19902926
   0.87981548  0.12014262  0.87320178
   0.33056302  0.92873825  0.66670597
   0.57038556  0.42733098  0.45623887
   0.66632573  0.59027702  0.33386253
   0.93694135  0.33198331  0.33460220
   0.35062642  0.99846107  0.49910978
   0.31609915  0.98204720  0.83386143
   0.90673561  0.80279527  0.13076554
   0.23669169  0.76613056  0.79020058
   0.12138697  0.23743878  0.13562162
   0.56547558  0.14016743  0.45606015
   0.23481452  0.46899856  0.79048435
   0.19987634  0.09715188  0.12575885
   0.00636829  0.26266416  0.00160277
   0.09962358  0.90307213  0.87521555
   0.80103685  0.90060005  0.87909495
   0.42587069  0.56982981  0.54808225
   0.52752255  0.76486834  0.80875262
   0.76996167  0.53221768  0.21083750
   0.13232746  0.56318628  0.54210950
   0.47120970  0.23437775  0.21225834
   0.65651667  0.64553943  0.50108881
   0.76941542  0.23195122  0.21704850
   0.66221019  0.68146650  0.84517521
   0.02058899  0.68750435  0.83319782
   0.09871579  0.19595985  0.87588685
   0.68889754  0.66781273  0.16968038
   0.56106570  0.89103829  0.77773166
   0.00034220  0.77394501  0.89380737
   0.89924514  0.33264936  0.23102127
   0.77333701  0.99907734  0.10812703
   0.10385060  0.43486766  0.56417703
   0.33400137  0.43857711  0.77206599
   0.00388400  0.77183284  0.10568929
   0.33395058  0.89589179  0.77149096
   0.23092521  0.99920311  0.10500586
   0.22913134  0.22606156  0.10651795
   0.10560789  0.43915389  0.77414654
   0.66599290  0.11216513  0.44123217
   0.00344827  0.22840643  0.10637699
   0.90065980  0.33501525  0.43814137
   0.33254007  0.89515532  0.56251110
   0.90219430  0.56555895  0.43592524
   0.10683271  0.66678097  0.77285280
   0.33323969  0.44007587  0.56345091
   0.89926122  0.56205539  0.22798765
   0.77825170  0.77394422  0.11011642
   0.66960453  0.55800511  0.43941449
   0.43878824  0.33458000  0.43826725
   0.10669694  0.66494094  0.56191767
   0.22895926  0.00127705  0.89422662
   0.66936356  0.56027165  0.22893618
   0.56161382  0.66975467  0.77996883
   0.00146349  0.22791567  0.89652905
   0.77316674  0.77204262  0.89850327
   0.66833045  0.10343871  0.23301508
   0.22840561  0.22769476  0.89512921
   0.44152021  0.33433760  0.22819033
   0.77147420  0.99972181  0.89825829
   0.56477328  0.90268010  0.56551003
   0.44076387  0.10497028  0.22852141
   0.43459065  0.10520155  0.43736825
