   3   3   0   0
  0.1365333E+04  0.1600000E-08  0.1600000E-08  0.1600000E-08  0.5000000E-15
  1.000000000000000E-004
  CAR 
 unknown system                          
      1.32649198    -17.49384352  301     -5.93502080      1.00000000
    -17.494  0.0000E+00  0.0000E+00
    -17.431  0.0000E+00  0.0000E+00
    -17.368  0.0000E+00  0.0000E+00
    -17.306  0.0000E+00  0.0000E+00
    -17.243  0.0000E+00  0.0000E+00
    -17.180  0.0000E+00  0.0000E+00
    -17.117  0.0000E+00  0.0000E+00
    -17.055  0.0000E+00  0.0000E+00
    -16.992  0.0000E+00  0.0000E+00
    -16.929  0.0000E+00  0.0000E+00
    -16.866  0.0000E+00  0.0000E+00
    -16.804  0.0000E+00  0.0000E+00
    -16.741  0.0000E+00  0.0000E+00
    -16.678  0.5241E-09  0.3288E-10
    -16.616  0.6372E-01  0.3997E-02
    -16.553  0.0000E+00  0.4000E-02
    -16.490  0.0000E+00  0.4000E-02
    -16.427  0.0000E+00  0.4000E-02
    -16.365  0.0000E+00  0.4000E-02
    -16.302  0.0000E+00  0.4000E-02
    -16.239  0.0000E+00  0.4000E-02
    -16.176  0.0000E+00  0.4000E-02
    -16.114  0.0000E+00  0.4000E-02
    -16.051  0.0000E+00  0.4000E-02
    -15.988  0.0000E+00  0.4000E-02
    -15.925  0.0000E+00  0.4000E-02
    -15.863  0.0000E+00  0.4000E-02
    -15.800  0.0000E+00  0.4000E-02
    -15.737  0.0000E+00  0.4000E-02
    -15.675  0.0000E+00  0.4000E-02
    -15.612  0.0000E+00  0.4000E-02
    -15.549  0.0000E+00  0.4000E-02
    -15.486  0.0000E+00  0.4000E-02
    -15.424  0.0000E+00  0.4000E-02
    -15.361  0.0000E+00  0.4000E-02
    -15.298  0.0000E+00  0.4000E-02
    -15.235  0.0000E+00  0.4000E-02
    -15.173  0.0000E+00  0.4000E-02
    -15.110  0.0000E+00  0.4000E-02
    -15.047  0.0000E+00  0.4000E-02
    -14.984  0.0000E+00  0.4000E-02
    -14.922  0.0000E+00  0.4000E-02
    -14.859  0.0000E+00  0.4000E-02
    -14.796  0.0000E+00  0.4000E-02
    -14.734  0.0000E+00  0.4000E-02
    -14.671  0.0000E+00  0.4000E-02
    -14.608  0.0000E+00  0.4000E-02
    -14.545  0.0000E+00  0.4000E-02
    -14.483  0.0000E+00  0.4000E-02
    -14.420  0.0000E+00  0.4000E-02
    -14.357  0.0000E+00  0.4000E-02
    -14.294  0.0000E+00  0.4000E-02
    -14.232  0.0000E+00  0.4000E-02
    -14.169  0.0000E+00  0.4000E-02
    -14.106  0.0000E+00  0.4000E-02
    -14.043  0.0000E+00  0.4000E-02
    -13.981  0.0000E+00  0.4000E-02
    -13.918  0.0000E+00  0.4000E-02
    -13.855  0.0000E+00  0.4000E-02
    -13.793  0.0000E+00  0.4000E-02
    -13.730  0.0000E+00  0.4000E-02
    -13.667  0.0000E+00  0.4000E-02
    -13.604  0.0000E+00  0.4000E-02
    -13.542  0.0000E+00  0.4000E-02
    -13.479  0.0000E+00  0.4000E-02
    -13.416  0.0000E+00  0.4000E-02
    -13.353  0.0000E+00  0.4000E-02
    -13.291  0.0000E+00  0.4000E-02
    -13.228  0.0000E+00  0.4000E-02
    -13.165  0.0000E+00  0.4000E-02
    -13.102  0.0000E+00  0.4000E-02
    -13.040  0.0000E+00  0.4000E-02
    -12.977  0.0000E+00  0.4000E-02
    -12.914  0.0000E+00  0.4000E-02
    -12.851  0.0000E+00  0.4000E-02
    -12.789  0.0000E+00  0.4000E-02
    -12.726  0.0000E+00  0.4000E-02
    -12.663  0.0000E+00  0.4000E-02
    -12.601  0.0000E+00  0.4000E-02
    -12.538  0.0000E+00  0.4000E-02
    -12.475  0.0000E+00  0.4000E-02
    -12.412  0.0000E+00  0.4000E-02
    -12.350  0.0000E+00  0.4000E-02
    -12.287  0.0000E+00  0.4000E-02
    -12.224  0.0000E+00  0.4000E-02
    -12.161  0.0000E+00  0.4000E-02
    -12.099  0.0000E+00  0.4000E-02
    -12.036  0.0000E+00  0.4000E-02
    -11.973  0.0000E+00  0.4000E-02
    -11.910  0.0000E+00  0.4000E-02
    -11.848  0.0000E+00  0.4000E-02
    -11.785  0.0000E+00  0.4000E-02
    -11.722  0.0000E+00  0.4000E-02
    -11.660  0.0000E+00  0.4000E-02
    -11.597  0.0000E+00  0.4000E-02
    -11.534  0.0000E+00  0.4000E-02
    -11.471  0.0000E+00  0.4000E-02
    -11.409  0.0000E+00  0.4000E-02
    -11.346  0.0000E+00  0.4000E-02
    -11.283  0.0000E+00  0.4000E-02
    -11.220  0.0000E+00  0.4000E-02
    -11.158  0.0000E+00  0.4000E-02
    -11.095  0.0000E+00  0.4000E-02
    -11.032  0.0000E+00  0.4000E-02
    -10.969  0.0000E+00  0.4000E-02
    -10.907  0.0000E+00  0.4000E-02
    -10.844  0.0000E+00  0.4000E-02
    -10.781  0.0000E+00  0.4000E-02
    -10.719  0.0000E+00  0.4000E-02
    -10.656  0.0000E+00  0.4000E-02
    -10.593  0.0000E+00  0.4000E-02
    -10.530  0.0000E+00  0.4000E-02
    -10.468  0.0000E+00  0.4000E-02
    -10.405  0.0000E+00  0.4000E-02
    -10.342  0.0000E+00  0.4000E-02
    -10.279  0.0000E+00  0.4000E-02
    -10.217  0.0000E+00  0.4000E-02
    -10.154  0.0000E+00  0.4000E-02
    -10.091  0.0000E+00  0.4000E-02
    -10.028  0.0000E+00  0.4000E-02
     -9.966  0.0000E+00  0.4000E-02
     -9.903  0.7094E-04  0.4004E-02
     -9.840  0.6369E-01  0.8000E-02
     -9.778  0.0000E+00  0.8000E-02
     -9.715  0.0000E+00  0.8000E-02
     -9.652  0.0000E+00  0.8000E-02
     -9.589  0.0000E+00  0.8000E-02
     -9.527  0.0000E+00  0.8000E-02
     -9.464  0.0000E+00  0.8000E-02
     -9.401  0.0000E+00  0.8000E-02
     -9.338  0.0000E+00  0.8000E-02
     -9.276  0.0000E+00  0.8000E-02
     -9.213  0.0000E+00  0.8000E-02
     -9.150  0.0000E+00  0.8000E-02
     -9.087  0.0000E+00  0.8000E-02
     -9.025  0.0000E+00  0.8000E-02
     -8.962  0.0000E+00  0.8000E-02
     -8.899  0.0000E+00  0.8000E-02
     -8.836  0.0000E+00  0.8000E-02
     -8.774  0.0000E+00  0.8000E-02
     -8.711  0.0000E+00  0.8000E-02
     -8.648  0.0000E+00  0.8000E-02
     -8.586  0.0000E+00  0.8000E-02
     -8.523  0.0000E+00  0.8000E-02
     -8.460  0.0000E+00  0.8000E-02
     -8.397  0.0000E+00  0.8000E-02
     -8.335  0.0000E+00  0.8000E-02
     -8.272  0.0000E+00  0.8000E-02
     -8.209  0.0000E+00  0.8000E-02
     -8.146  0.0000E+00  0.8000E-02
     -8.084  0.0000E+00  0.8000E-02
     -8.021  0.0000E+00  0.8000E-02
     -7.958  0.0000E+00  0.8000E-02
     -7.895  0.0000E+00  0.8000E-02
     -7.833  0.0000E+00  0.8000E-02
     -7.770  0.0000E+00  0.8000E-02
     -7.707  0.0000E+00  0.8000E-02
     -7.645  0.0000E+00  0.8000E-02
     -7.582  0.0000E+00  0.8000E-02
     -7.519  0.0000E+00  0.8000E-02
     -7.456  0.0000E+00  0.8000E-02
     -7.394  0.0000E+00  0.8000E-02
     -7.331  0.0000E+00  0.8000E-02
     -7.268  0.0000E+00  0.8000E-02
     -7.205  0.0000E+00  0.8000E-02
     -7.143  0.0000E+00  0.8000E-02
     -7.080  0.0000E+00  0.8000E-02
     -7.017  0.0000E+00  0.8000E-02
     -6.954  0.0000E+00  0.8000E-02
     -6.892  0.0000E+00  0.8000E-02
     -6.829  0.0000E+00  0.8000E-02
     -6.766  0.0000E+00  0.8000E-02
     -6.704  0.0000E+00  0.8000E-02
     -6.641  0.0000E+00  0.8000E-02
     -6.578  0.0000E+00  0.8000E-02
     -6.515  0.0000E+00  0.8000E-02
     -6.453  0.0000E+00  0.8000E-02
     -6.390  0.0000E+00  0.8000E-02
     -6.327  0.0000E+00  0.8000E-02
     -6.264  0.0000E+00  0.8000E-02
     -6.202  0.0000E+00  0.8000E-02
     -6.139  0.0000E+00  0.8000E-02
     -6.076  0.0000E+00  0.8000E-02
     -6.013  0.3719E-03  0.8023E-02
     -5.951  0.6339E-01  0.1200E-01
     -5.888  0.0000E+00  0.1200E-01
     -5.825  0.0000E+00  0.1200E-01
     -5.763  0.0000E+00  0.1200E-01
     -5.700  0.0000E+00  0.1200E-01
     -5.637  0.0000E+00  0.1200E-01
     -5.574  0.0000E+00  0.1200E-01
     -5.512  0.0000E+00  0.1200E-01
     -5.449  0.0000E+00  0.1200E-01
     -5.386  0.0000E+00  0.1200E-01
     -5.323  0.0000E+00  0.1200E-01
     -5.261  0.0000E+00  0.1200E-01
     -5.198  0.0000E+00  0.1200E-01
     -5.135  0.0000E+00  0.1200E-01
     -5.072  0.0000E+00  0.1200E-01
     -5.010  0.2937E-01  0.1384E-01
     -4.947  0.3439E-01  0.1600E-01
     -4.884  0.0000E+00  0.1600E-01
     -4.821  0.0000E+00  0.1600E-01
     -4.759  0.0000E+00  0.1600E-01
     -4.696  0.0000E+00  0.1600E-01
     -4.633  0.0000E+00  0.1600E-01
     -4.571  0.0000E+00  0.1600E-01
     -4.508  0.0000E+00  0.1600E-01
     -4.445  0.0000E+00  0.1600E-01
     -4.382  0.0000E+00  0.1600E-01
     -4.320  0.0000E+00  0.1600E-01
     -4.257  0.0000E+00  0.1600E-01
     -4.194  0.0000E+00  0.1600E-01
     -4.131  0.0000E+00  0.1600E-01
     -4.069  0.0000E+00  0.1600E-01
     -4.006  0.0000E+00  0.1600E-01
     -3.943  0.0000E+00  0.1600E-01
     -3.880  0.0000E+00  0.1600E-01
     -3.818  0.0000E+00  0.1600E-01
     -3.755  0.0000E+00  0.1600E-01
     -3.692  0.0000E+00  0.1600E-01
     -3.630  0.0000E+00  0.1600E-01
     -3.567  0.0000E+00  0.1600E-01
     -3.504  0.0000E+00  0.1600E-01
     -3.441  0.0000E+00  0.1600E-01
     -3.379  0.0000E+00  0.1600E-01
     -3.316  0.0000E+00  0.1600E-01
     -3.253  0.0000E+00  0.1600E-01
     -3.190  0.0000E+00  0.1600E-01
     -3.128  0.0000E+00  0.1600E-01
     -3.065  0.0000E+00  0.1600E-01
     -3.002  0.0000E+00  0.1600E-01
     -2.939  0.0000E+00  0.1600E-01
     -2.877  0.0000E+00  0.1600E-01
     -2.814  0.0000E+00  0.1600E-01
     -2.751  0.0000E+00  0.1600E-01
     -2.689  0.0000E+00  0.1600E-01
     -2.626  0.0000E+00  0.1600E-01
     -2.563  0.0000E+00  0.1600E-01
     -2.500  0.0000E+00  0.1600E-01
     -2.438  0.0000E+00  0.1600E-01
     -2.375  0.0000E+00  0.1600E-01
     -2.312  0.0000E+00  0.1600E-01
     -2.249  0.0000E+00  0.1600E-01
     -2.187  0.0000E+00  0.1600E-01
     -2.124  0.0000E+00  0.1600E-01
     -2.061  0.0000E+00  0.1600E-01
     -1.998  0.0000E+00  0.1600E-01
     -1.936  0.0000E+00  0.1600E-01
     -1.873  0.0000E+00  0.1600E-01
     -1.810  0.0000E+00  0.1600E-01
     -1.747  0.0000E+00  0.1600E-01
     -1.685  0.0000E+00  0.1600E-01
     -1.622  0.0000E+00  0.1600E-01
     -1.559  0.0000E+00  0.1600E-01
     -1.497  0.0000E+00  0.1600E-01
     -1.434  0.0000E+00  0.1600E-01
     -1.371  0.0000E+00  0.1600E-01
     -1.308  0.0000E+00  0.1600E-01
     -1.246  0.0000E+00  0.1600E-01
     -1.183  0.0000E+00  0.1600E-01
     -1.120  0.0000E+00  0.1600E-01
     -1.057  0.0000E+00  0.1600E-01
     -0.995  0.0000E+00  0.1600E-01
     -0.932  0.0000E+00  0.1600E-01
     -0.869  0.0000E+00  0.1600E-01
     -0.806  0.0000E+00  0.1600E-01
     -0.744  0.0000E+00  0.1600E-01
     -0.681  0.0000E+00  0.1600E-01
     -0.618  0.0000E+00  0.1600E-01
     -0.556  0.4060E-11  0.1600E-01
     -0.493  0.6329E-01  0.1997E-01
     -0.430  0.4660E-03  0.2000E-01
     -0.367  0.0000E+00  0.2000E-01
     -0.305  0.0000E+00  0.2000E-01
     -0.242  0.0000E+00  0.2000E-01
     -0.179  0.0000E+00  0.2000E-01
     -0.116  0.0000E+00  0.2000E-01
     -0.054  0.0000E+00  0.2000E-01
      0.009  0.0000E+00  0.2000E-01
      0.072  0.0000E+00  0.2000E-01
      0.135  0.2137E-02  0.2013E-01
      0.197  0.6162E-01  0.2400E-01
      0.260  0.0000E+00  0.2400E-01
      0.323  0.1345E-15  0.2400E-01
      0.385  0.5402E-01  0.2739E-01
      0.448  0.9780E-02  0.2800E-01
      0.511  0.6372E-01  0.3200E-01
      0.574  0.0000E+00  0.3200E-01
      0.636  0.0000E+00  0.3200E-01
      0.699  0.0000E+00  0.3200E-01
      0.762  0.0000E+00  0.3200E-01
      0.825  0.0000E+00  0.3200E-01
      0.887  0.0000E+00  0.3200E-01
      0.950  0.0000E+00  0.3200E-01
      1.013  0.0000E+00  0.3200E-01
      1.076  0.0000E+00  0.3200E-01
      1.138  0.0000E+00  0.3200E-01
      1.201  0.0000E+00  0.3200E-01
      1.264  0.0000E+00  0.3200E-01
      1.326  0.0000E+00  0.3200E-01
