    3    3  500    1
  0.1365333E+04  0.1600000E-08  0.1600000E-08  0.1600000E-08  0.5000000E-15
  1.000000000000000E-004
  CAR 
 unknown system                          
      6      1      8
 
  0.0000000E+00  0.0000000E+00  0.0000000E+00  0.1000000E+01
    1      -16.638374   1.000000
    2       -9.881349   1.000000
    3       -5.995605   1.000000
    4       -5.008988   0.000000
    5       -0.510073   0.000000
    6        0.147488   0.000000
    7        0.378230   0.000000
    8        0.471022   0.000000
