 vasp.5.4.1 05Feb16 (build Feb 08 2018 09:21:51) complex                        
  
 executed on             LinuxIFC date 2019.11.13  13:51:00
 running on   96 total cores
 distrk:  each k-point on   96 cores,    1 groups
 distr:  one band on NCORES_PER_BAND=  48 cores,    2 groups


--------------------------------------------------------------------------------------------------------


 INCAR:
 POTCAR:    PAW_PBE H 15Jun2001                   
 POTCAR:    PAW_PBE C 08Apr2002                   

 ----------------------------------------------------------------------------- 
|                                                                             |
|           W    W    AA    RRRRR   N    N  II  N    N   GGGG   !!!           |
|           W    W   A  A   R    R  NN   N  II  NN   N  G    G  !!!           |
|           W    W  A    A  R    R  N N  N  II  N N  N  G       !!!           |
|           W WW W  AAAAAA  RRRRR   N  N N  II  N  N N  G  GGG   !            |
|           WW  WW  A    A  R   R   N   NN  II  N   NN  G    G                |
|           W    W  A    A  R    R  N    N  II  N    N   GGGG   !!!           |
|                                                                             |
|      For optimal performance we recommend to set                            |
|        NCORE= 4 - approx SQRT( number of cores)                             |
|      NCORE specifies how many cores store one orbital (NPAR=cpu/NCORE).     |
|      This setting can  greatly improve the performance of VASP for DFT.     |
|      The default, NPAR=number of cores might be grossly inefficient         |
|      on modern multi-core architectures or massively parallel machines.     |
|      Do your own testing !!!!                                               |
|      Unfortunately you need to use the default for GW and RPA calculations. |
|      (for HF NCORE is supported but not extensively tested yet)             |
|                                                                             |
 ----------------------------------------------------------------------------- 

 POTCAR:    PAW_PBE H 15Jun2001                   
   VRHFIN =H: ultrasoft test                                                    
   LEXCH  = PE                                                                  
   EATOM  =    12.4884 eV,    0.9179 Ry                                         
                                                                                
   TITEL  = PAW_PBE H 15Jun2001                                                 
   LULTRA =        F    use ultrasoft PP ?                                      
   IUNSCR =        0    unscreen: 0-lin 1-nonlin 2-no                           
   RPACOR =    0.000    partial core radius                                     
   POMASS =    1.000; ZVAL   =    1.000    mass and valenz                      
   RCORE  =    1.100    outmost cutoff radius                                   
   RWIGS  =    0.700; RWIGS  =    0.370    wigner-seitz radius (au A)           
   ENMAX  =  250.000; ENMIN  =  200.000 eV                                      
   RCLOC  =    0.701    cutoff for local pot                                    
   LCOR   =        T    correct aug charges                                     
   LPAW   =        T    paw PP                                                  
   EAUG   =  400.000                                                            
   RMAX   =    1.123    core radius for proj-oper                               
   RAUG   =    1.200    factor for augmentation sphere                          
   RDEP   =    1.112    radius for radial grids                                 
   RDEPT  =    0.926    core radius for aug-charge                              
                                                                                
   Atomic configuration                                                         
    2 entries                                                                   
     n  l   j            E        occ.                                          
     1  0  0.50        -6.4927   1.0000                                         
     2  1  0.50        -3.4015   0.0000                                         
   Description                                                                  
     l       E           TYP  RCUT    TYP  RCUT                                 
     0     -6.4927494     23  1.100                                             
     0      6.8029130     23  1.100                                             
     1     -4.0817478     23  1.100                                             
  local pseudopotential read in
  atomic valenz-charges read in
  non local Contribution for L=           0  read in
    real space projection operators read in
  non local Contribution for L=           0  read in
    real space projection operators read in
  non local Contribution for L=           1  read in
    real space projection operators read in
    PAW grid and wavefunctions read in
 
   number of l-projection  operators is LMAX  =           3
   number of lm-projection operators is LMMAX =           5
 
 POTCAR:    PAW_PBE C 08Apr2002                   
   VRHFIN =C: s2p2                                                              
   LEXCH  = PE                                                                  
   EATOM  =   147.1560 eV,   10.8157 Ry                                         
                                                                                
   TITEL  = PAW_PBE C 08Apr2002                                                 
   LULTRA =        F    use ultrasoft PP ?                                      
   IUNSCR =        1    unscreen: 0-lin 1-nonlin 2-no                           
   RPACOR =    1.200    partial core radius                                     
   POMASS =   12.011; ZVAL   =    4.000    mass and valenz                      
   RCORE  =    1.500    outmost cutoff radius                                   
   RWIGS  =    1.630; RWIGS  =    0.863    wigner-seitz radius (au A)           
   ENMAX  =  400.000; ENMIN  =  300.000 eV                                      
   ICORE  =        2    local potential                                         
   LCOR   =        T    correct aug charges                                     
   LPAW   =        T    paw PP                                                  
   EAUG   =  644.873                                                            
   DEXC   =    0.000                                                            
   RMAX   =    1.529    core radius for proj-oper                               
   RAUG   =    1.300    factor for augmentation sphere                          
   RDEP   =    1.501    radius for radial grids                                 
   RDEPT  =    1.300    core radius for aug-charge                              
                                                                                
   Atomic configuration                                                         
    4 entries                                                                   
     n  l   j            E        occ.                                          
     1  0  0.50      -273.3789   2.0000                                         
     2  0  0.50       -13.7508   2.0000                                         
     2  1  0.50        -5.2854   2.0000                                         
     3  2  1.50        -5.4423   0.0000                                         
   Description                                                                  
     l       E           TYP  RCUT    TYP  RCUT                                 
     0    -13.7508458     23  1.200                                             
     0     -8.2022199     23  1.200                                             
     1     -5.2854383     23  1.500                                             
     1     34.0145650     23  1.500                                             
     2     -5.4423304      7  1.500                                             
  local pseudopotential read in
  partial core-charges read in
  partial kinetic energy density read in
  atomic valenz-charges read in
  non local Contribution for L=           0  read in
    real space projection operators read in
  non local Contribution for L=           0  read in
    real space projection operators read in
  non local Contribution for L=           1  read in
    real space projection operators read in
  non local Contribution for L=           1  read in
    real space projection operators read in
    PAW grid and wavefunctions read in
 
   number of l-projection  operators is LMAX  =           4
   number of lm-projection operators is LMMAX =           8
 
  PAW_PBE H 15Jun2001                   :
 energy of atom  1       EATOM=  -12.4884
 kinetic energy error for atom=    0.0098 (will be added to EATOM!!)
  PAW_PBE C 08Apr2002                   :
 energy of atom  2       EATOM= -147.1560
 kinetic energy error for atom=    0.0288 (will be added to EATOM!!)
 
 
 POSCAR:  H  C                                   
  positions in cartesian coordinates
  No initial velocities read in
 exchange correlation table for  LEXCH =        8
   RHO(1)=    0.500       N(1)  =     2000
   RHO(2)=  100.500       N(2)  =     4000
 


--------------------------------------------------------------------------------------------------------


 ion  position               nearest neighbor table
   1  0.519  0.452  0.500-   3 0.97
   2  0.519  0.548  0.500-   3 0.97
   3  0.481  0.500  0.500-   1 0.97   2 0.97
 
  LATTYP: Found a simple cubic cell.
 ALAT       =    16.0000000000
  
  Lattice vectors:
  
 A1 = (  16.0000000000,   0.0000000000,   0.0000000000)
 A2 = (   0.0000000000,  16.0000000000,   0.0000000000)
 A3 = (   0.0000000000,   0.0000000000,  16.0000000000)


Analysis of symmetry for initial positions (statically):
=====================================================================
 Subroutine PRICEL returns:
 Original cell was already a primitive cell.
 

 Routine SETGRP: Setting up the symmetry group for a 
 simple cubic supercell.


 Subroutine GETGRP returns: Found  4 space group operations
 (whereof  4 operations were pure point group operations)
 out of a pool of 48 trial point group operations.


The static configuration has the point symmetry C_2v.


Analysis of symmetry for dynamics (positions and initial velocities):
=====================================================================
 Subroutine PRICEL returns:
 Original cell was already a primitive cell.
 

 Routine SETGRP: Setting up the symmetry group for a 
 simple cubic supercell.


 Subroutine GETGRP returns: Found  4 space group operations
 (whereof  4 operations were pure point group operations)
 out of a pool of 48 trial point group operations.


The dynamic configuration has the point symmetry C_2v.


 Subroutine INISYM returns: Found  4 space group operations
 (whereof  4 operations are pure point group operations),
 and found     1 'primitive' translations

 
 
 KPOINTS: KPOINTS created by Atomic Simulation Env

Automatic generation of k-mesh.
Space group operators:
 irot       det(A)        alpha          n_x          n_y          n_z        tau_x        tau_y        tau_z
    1     1.000000     0.000000     1.000000     0.000000     0.000000     0.000000     0.000000     0.000000
    2    -1.000000   180.000000     0.000000     0.000000     1.000000     0.000000     0.000000     0.000000
    3     1.000000   180.000000     1.000000     0.000000     0.000000     0.000000     0.000000     0.000000
    4    -1.000000   180.000000     0.000000     1.000000     0.000000     0.000000     0.000000     0.000000
 
 Subroutine IBZKPT returns following result:
 ===========================================
 
 Found      1 irreducible k-points:
 
 Following reciprocal coordinates:
            Coordinates               Weight
  0.000000  0.000000  0.000000      1.000000
 
 Following cartesian coordinates:
            Coordinates               Weight
  0.000000  0.000000  0.000000      1.000000
 


--------------------------------------------------------------------------------------------------------




 Dimension of arrays:
   k-points           NKPTS =      1   k-points in BZ     NKDIM =      1   number of bands    NBANDS=      8
   number of dos      NEDOS =    301   number of ions     NIONS =      3
   non local maximal  LDIM  =      4   non local SUM 2l+1 LMDIM =      8
   total plane-waves  NPLWV = 512000
   max r-space proj   IRMAX =      1   max aug-charges    IRDMAX=   1674
   dimension x,y,z NGX =    80 NGY =   80 NGZ =   80
   dimension x,y,z NGXF=   160 NGYF=  160 NGZF=  160
   support grid    NGXF=   160 NGYF=  160 NGZF=  160
   ions per type =               2   1
 NGX,Y,Z   is equivalent  to a cutoff of   8.31,  8.31,  8.31 a.u.
 NGXF,Y,Z  is equivalent  to a cutoff of  16.62, 16.62, 16.62 a.u.


 I would recommend the setting:
   dimension x,y,z NGX =    78 NGY =   78 NGZ =   78
 SYSTEM =  unknown system                          
 POSCAR =   H  C                                   

 Startparameter for this run:
   NWRITE =      2    write-flag & timer
   PREC   = normal    normal or accurate (medium, high low for compatibility)
   ISTART =      0    job   : 0-new  1-cont  2-samecut
   ICHARG =      2    charge: 1-file 2-atom 10-const
   ISPIN  =      1    spin polarized calculation?
   LNONCOLLINEAR =      F non collinear calculations
   LSORBIT =      F    spin-orbit coupling
   INIWAV =      1    electr: 0-lowe 1-rand  2-diag
   LASPH  =      F    aspherical Exc in radial PAW
   METAGGA=      F    non-selfconsistent MetaGGA calc.

 Electronic Relaxation 1
   ENCUT  =  400.0 eV  29.40 Ry    5.42 a.u.  26.09 26.09 26.09*2*pi/ulx,y,z
   ENINI  =  400.0     initial cutoff
   ENAUG  =  644.9 eV  augmentation charge cutoff
   NELM   =     60;   NELMIN=  2; NELMDL= -5     # of ELM steps 
   EDIFF  = 0.1E-07   stopping-criterion for ELM
   LREAL  =      F    real-space projection
   NLSPLINE    = F    spline interpolate recip. space projectors
   LCOMPAT=      F    compatible to vasp.4.4
   GGA_COMPAT  = T    GGA compatible to vasp.4.4-vasp.4.6
   LMAXPAW     = -100 max onsite density
   LMAXMIX     =    2 max onsite mixed and CHGCAR
   VOSKOWN=      0    Vosko Wilk Nusair interpolation
   ROPT   =    0.00000   0.00000
 Ionic relaxation
   EDIFFG = -.1E-01   stopping-criterion for IOM
   NSW    =    500    number of steps for IOM
   NBLOCK =      1;   KBLOCK =    500    inner block; outer block 
   IBRION =      2    ionic relax: 0-MD 1-quasi-New 2-CG
   NFREE  =      1    steps in history (QN), initial steepest desc. (CG)
   ISIF   =      2    stress and relaxation
   IWAVPR =     11    prediction:  0-non 1-charg 2-wave 3-comb
   ISYM   =      2    0-nonsym 1-usesym 2-fastsym
   LCORR  =      T    Harris-Foulkes like correction to forces

   POTIM  = 0.5000    time-step for ionic-motion
   TEIN   =    0.0    initial temperature
   TEBEG  =    0.0;   TEEND  =   0.0 temperature during run
   SMASS  =  -3.00    Nose mass-parameter (am)
   estimated Nose-frequenzy (Omega)   =  0.10E-29 period in steps =****** mass=  -0.585E-26a.u.
   SCALEE = 1.0000    scale energy and forces
   NPACO  =    256;   APACO  = 16.0  distance and # of slots for P.C.
   PSTRESS=    0.0 pullay stress

  Mass of Ions in am
   POMASS =   1.00 12.01
  Ionic Valenz
   ZVAL   =   1.00  4.00
  Atomic Wigner-Seitz radii
   RWIGS  =  -1.00 -1.00
  virtual crystal weights 
   VCA    =   1.00  1.00
   NELECT =       6.0000    total number of electrons
   NUPDOWN=      -1.0000    fix difference up-down

 DOS related values:
   EMIN   =  10.00;   EMAX   =-10.00  energy-range for DOS
   EFERMI =   0.00
   ISMEAR =     0;   SIGMA  =   0.01  broadening in eV -4-tet -1-fermi 0-gaus

 Electronic relaxation 2 (details)
   IALGO  =     38    algorithm
   LDIAG  =      T    sub-space diagonalisation (order eigenvalues)
   LSUBROT=      F    optimize rotation matrix (better conditioning)
   TURBO    =      0    0=normal 1=particle mesh
   IRESTART =      0    0=no restart 2=restart with 2 vectors
   NREBOOT  =      0    no. of reboots
   NMIN     =      0    reboot dimension
   EREF     =   0.00    reference energy to select bands
   IMIX   =      4    mixing-type and parameters
     AMIX     =   0.40;   BMIX     =  1.00
     AMIX_MAG =   1.60;   BMIX_MAG =  1.00
     AMIN     =   0.10
     WC   =   100.;   INIMIX=   1;  MIXPRE=   1;  MAXMIX= -45

 Intra band minimization:
   WEIMIN = 0.0010     energy-eigenvalue tresh-hold
   EBREAK =  0.31E-09  absolut break condition
   DEPER  =   0.30     relativ break condition  

   TIME   =   0.40     timestep for ELM

  volume/ion in A,a.u.               =    1365.33      9213.72
  Fermi-wavevector in a.u.,A,eV,Ry     =   0.185925  0.351348  0.470329  0.034568
  Thomas-Fermi vector in A             =   0.919440
 
 Write flags
   LWAVE  =      F    write WAVECAR
   LCHARG =      F    write CHGCAR
   LVTOT  =      F    write LOCPOT, total local potential
   LVHAR  =      F    write LOCPOT, Hartree potential only
   LELF   =      F    write electronic localiz. function (ELF)
   LORBIT =      0    0 simple, 1 ext, 2 COOP (PROOUT)


 Dipole corrections
   LMONO  =      F    monopole corrections only (constant potential shift)
   LDIPOL =      F    correct potential (dipole corrections)
   IDIPOL =      0    1-x, 2-y, 3-z, 4-all directions 
   EPSILON=  1.0000000 bulk dielectric constant

 Exchange correlation treatment:
   GGA     =    --    GGA type
   LEXCH   =     8    internal setting for exchange type
   VOSKOWN=      0    Vosko Wilk Nusair interpolation
   LHFCALC =     F    Hartree Fock is set to
   LHFONE  =     F    Hartree Fock one center treatment
   AEXX    =    0.0000 exact exchange contribution

 Linear response parameters
   LEPSILON=     F    determine dielectric tensor
   LRPA    =     F    only Hartree local field effects (RPA)
   LNABLA  =     F    use nabla operator in PAW spheres
   LVEL    =     F    velocity operator in full k-point grid
   LINTERFAST=   F  fast interpolation
   KINTER  =     0    interpolate to denser k-point grid
   CSHIFT  =0.1000    complex shift for real part using Kramers Kronig
   OMEGAMAX=  -1.0    maximum frequency
   DEG_THRESHOLD= 0.2000000E-02 threshold for treating states as degnerate
   RTIME   =    0.100 relaxation time in fs

 Orbital magnetization related:
   ORBITALMAG=     F  switch on orbital magnetization
   LCHIMAG   =     F  perturbation theory with respect to B field
   DQ        =  0.001000  dq finite difference perturbation B field



--------------------------------------------------------------------------------------------------------


 conjugate gradient relaxation of ions
 charge density and potential will be updated during run
 non-spin polarized calculation
 Variant of blocked Davidson
 Davidson routine will perform the subspace rotation
 perform sub-space diagonalisation
    after iterative eigenvector-optimisation
 modified Broyden-mixing scheme, WC =      100.0
 initial mixing is a Kerker type mixing with AMIX =  0.4000 and BMIX =      1.0000
 Hartree-type preconditioning will be used
 using additional bands            5
 reciprocal scheme for non local part
 use partial core corrections
 calculate Harris-corrections to forces 
   (improved forces if not selfconsistent)
 use gradient corrections 
 use of overlap-Matrix (Vanderbilt PP)
 Gauss-broadening in eV      SIGMA  =   0.01


--------------------------------------------------------------------------------------------------------


  energy-cutoff  :      400.00
  volume of cell :     4096.00
      direct lattice vectors                 reciprocal lattice vectors
    16.000000000  0.000000000  0.000000000     0.062500000  0.000000000  0.000000000
     0.000000000 16.000000000  0.000000000     0.000000000  0.062500000  0.000000000
     0.000000000  0.000000000 16.000000000     0.000000000  0.000000000  0.062500000

  length of vectors
    16.000000000 16.000000000 16.000000000     0.062500000  0.062500000  0.062500000


 
 k-points in units of 2pi/SCALE and weight: KPOINTS created by Atomic Simulation Env
   0.00000000  0.00000000  0.00000000       1.000
 
 k-points in reciprocal lattice and weights: KPOINTS created by Atomic Simulation Env
   0.00000000  0.00000000  0.00000000       1.000
 
 position of ions in fractional coordinates (direct lattice) 
   0.51862754  0.45201832  0.50000000
   0.51862754  0.54798168  0.50000000
   0.48137246  0.50000000  0.50000000
 
 position of ions in cartesian coordinates  (Angst):
   8.29804060  7.23229320  8.00000000
   8.29804060  8.76770680  8.00000000
   7.70195940  8.00000000  8.00000000
 


--------------------------------------------------------------------------------------------------------


 k-point  1 :   0.0000 0.0000 0.0000  plane waves:   74269

 maximum and minimum number of plane-waves per node :      1554     1537

 maximum number of plane-waves:     74269
 maximum index in each direction: 
   IXMAX=   26   IYMAX=   26   IZMAX=   26
   IXMIN=  -26   IYMIN=  -26   IZMIN=  -26

 WARNING: aliasing errors must be expected set NGX to 106 to avoid them
 WARNING: aliasing errors must be expected set NGY to 106 to avoid them
 WARNING: aliasing errors must be expected set NGZ to 106 to avoid them
 aliasing errors are usually negligible using standard VASP settings
 and one can safely disregard these warnings

 parallel 3D FFT for wavefunctions:
    minimum data exchange during FFTs selected (reduces bandwidth)
 parallel 3D FFT for charge:
    minimum data exchange during FFTs selected (reduces bandwidth)


 total amount of memory used by VASP on root node    35862. kBytes
========================================================================

   base      :      30000. kBytes
   nonl-proj :        272. kBytes
   fftplans  :       2081. kBytes
   grid      :       3407. kBytes
   one-center:          3. kBytes
   wavefun   :         99. kBytes
 
     INWAV:  cpu time    0.0000: real time    0.0001
 Broyden mixing: mesh for mixing (old mesh)
   NGX = 53   NGY = 53   NGZ = 53
  (NGX  =160   NGY  =160   NGZ  =160)
  gives a total of 148877 points

 initial charge density was supplied:
 charge density of overlapping atoms calculated
 number of electron       6.0000000 magnetization 
 keeping initial charge density in first step


--------------------------------------------------------------------------------------------------------


 Maximum index for augmentation-charges            0 (set IRDMAX)


--------------------------------------------------------------------------------------------------------


 First call to EWALD:  gamma=   0.111
 Maximum number of real-space cells 3x 3x 3
 Maximum number of reciprocal cells 3x 3x 3

 FEWALD executed in parallel
    FEWALD:  cpu time    0.0098: real time    0.0099


----------------------------------------- Iteration    1(   1)  ---------------------------------------


    POTLOK:  cpu time    0.5660: real time    0.5678
    SETDIJ:  cpu time    0.0074: real time    0.0074
     EDDAV:  cpu time    0.1651: real time    0.1674
       DOS:  cpu time    0.0004: real time    0.0004
    --------------------------------------------
      LOOP:  cpu time    0.7467: real time    0.7630

 eigenvalue-minimisations  :    24
 total energy-change (2. order) : 0.2848968E+02  (-0.1071521E+03)
 number of electron       6.0000000 magnetization 
 augmentation part        6.0000000 magnetization 

 Free energy of the ion-electron system (eV)
  ---------------------------------------------------
  alpha Z        PSCENC =         0.03722024
  Ewald energy   TEWEN  =        82.01097072
  -Hartree energ DENC   =      -190.73977345
  -exchange      EXHF   =         0.00000000
  -V(xc)+E(xc)   XCENC  =        16.59047161
  PAW double counting   =       112.79010125     -113.37726263
  entropy T*S    EENTRO =        -0.00000000
  eigenvalues    EBANDS =       -50.90653523
  atomic energy  EATOM  =       172.08448920
  Solvation  Ediel_sol  =         0.00000000
  ---------------------------------------------------
  free energy    TOTEN  =        28.48968171 eV

  energy without entropy =       28.48968171  energy(sigma->0) =       28.48968171


--------------------------------------------------------------------------------------------------------




----------------------------------------- Iteration    1(   2)  ---------------------------------------


     EDDAV:  cpu time    0.1533: real time    0.1538
       DOS:  cpu time    0.0028: real time    0.0028
    --------------------------------------------
      LOOP:  cpu time    0.1606: real time    0.1622

 eigenvalue-minimisations  :    24
 total energy-change (2. order) :-0.3489995E+02  (-0.3489995E+02)
 number of electron       6.0000000 magnetization 
 augmentation part        6.0000000 magnetization 

 Free energy of the ion-electron system (eV)
  ---------------------------------------------------
  alpha Z        PSCENC =         0.03722024
  Ewald energy   TEWEN  =        82.01097072
  -Hartree energ DENC   =      -190.73977345
  -exchange      EXHF   =         0.00000000
  -V(xc)+E(xc)   XCENC  =        16.59047161
  PAW double counting   =       112.79010125     -113.37726263
  entropy T*S    EENTRO =        -0.00000000
  eigenvalues    EBANDS =       -85.80648153
  atomic energy  EATOM  =       172.08448920
  Solvation  Ediel_sol  =         0.00000000
  ---------------------------------------------------
  free energy    TOTEN  =        -6.41026459 eV

  energy without entropy =       -6.41026459  energy(sigma->0) =       -6.41026459


--------------------------------------------------------------------------------------------------------




----------------------------------------- Iteration    1(   3)  ---------------------------------------


     EDDAV:  cpu time    0.1861: real time    0.1899
       DOS:  cpu time    0.0028: real time    0.0028
    --------------------------------------------
      LOOP:  cpu time    0.1942: real time    0.1994

 eigenvalue-minimisations  :    24
 total energy-change (2. order) :-0.6172218E+01  (-0.6172218E+01)
 number of electron       6.0000000 magnetization 
 augmentation part        6.0000000 magnetization 

 Free energy of the ion-electron system (eV)
  ---------------------------------------------------
  alpha Z        PSCENC =         0.03722024
  Ewald energy   TEWEN  =        82.01097072
  -Hartree energ DENC   =      -190.73977345
  -exchange      EXHF   =         0.00000000
  -V(xc)+E(xc)   XCENC  =        16.59047161
  PAW double counting   =       112.79010125     -113.37726263
  entropy T*S    EENTRO =        -0.00000000
  eigenvalues    EBANDS =       -91.97869947
  atomic energy  EATOM  =       172.08448920
  Solvation  Ediel_sol  =         0.00000000
  ---------------------------------------------------
  free energy    TOTEN  =       -12.58248253 eV

  energy without entropy =      -12.58248253  energy(sigma->0) =      -12.58248253


--------------------------------------------------------------------------------------------------------




----------------------------------------- Iteration    1(   4)  ---------------------------------------


     EDDAV:  cpu time    0.0926: real time    0.0964
       DOS:  cpu time    0.0032: real time    0.0032
    --------------------------------------------
      LOOP:  cpu time    0.1002: real time    0.1061

 eigenvalue-minimisations  :    16
 total energy-change (2. order) :-0.5451741E-01  (-0.5451741E-01)
 number of electron       6.0000000 magnetization 
 augmentation part        6.0000000 magnetization 

 Free energy of the ion-electron system (eV)
  ---------------------------------------------------
  alpha Z        PSCENC =         0.03722024
  Ewald energy   TEWEN  =        82.01097072
  -Hartree energ DENC   =      -190.73977345
  -exchange      EXHF   =         0.00000000
  -V(xc)+E(xc)   XCENC  =        16.59047161
  PAW double counting   =       112.79010125     -113.37726263
  entropy T*S    EENTRO =        -0.00000000
  eigenvalues    EBANDS =       -92.03321688
  atomic energy  EATOM  =       172.08448920
  Solvation  Ediel_sol  =         0.00000000
  ---------------------------------------------------
  free energy    TOTEN  =       -12.63699994 eV

  energy without entropy =      -12.63699994  energy(sigma->0) =      -12.63699994


--------------------------------------------------------------------------------------------------------




----------------------------------------- Iteration    1(   5)  ---------------------------------------


     EDDAV:  cpu time    0.1110: real time    0.1113
       DOS:  cpu time    0.0022: real time    0.0022
    CHARGE:  cpu time    0.2674: real time    0.2681
    MIXING:  cpu time    0.0058: real time    0.0058
    --------------------------------------------
      LOOP:  cpu time    0.3916: real time    0.3942

 eigenvalue-minimisations  :    16
 total energy-change (2. order) :-0.7834211E-03  (-0.7834211E-03)
 number of electron       6.0000018 magnetization 
 augmentation part        0.1265742 magnetization 

 Broyden mixing:
  rms(total) = 0.92266E+00    rms(broyden)= 0.92043E+00
  rms(prec ) = 0.10154E+01
  weight for this iteration     100.00

 Free energy of the ion-electron system (eV)
  ---------------------------------------------------
  alpha Z        PSCENC =         0.03722024
  Ewald energy   TEWEN  =        82.01097072
  -Hartree energ DENC   =      -190.73977345
  -exchange      EXHF   =         0.00000000
  -V(xc)+E(xc)   XCENC  =        16.59047161
  PAW double counting   =       112.79010125     -113.37726263
  entropy T*S    EENTRO =        -0.00000000
  eigenvalues    EBANDS =       -92.03400031
  atomic energy  EATOM  =       172.08448920
  Solvation  Ediel_sol  =         0.00000000
  ---------------------------------------------------
  free energy    TOTEN  =       -12.63778336 eV

  energy without entropy =      -12.63778336  energy(sigma->0) =      -12.63778336


--------------------------------------------------------------------------------------------------------




----------------------------------------- Iteration    1(   6)  ---------------------------------------


    POTLOK:  cpu time    0.5472: real time    0.5502
    SETDIJ:  cpu time    0.0042: real time    0.0042
     EDDAV:  cpu time    0.2424: real time    0.2521
       DOS:  cpu time    0.0006: real time    0.0006
    CHARGE:  cpu time    0.2540: real time    0.2549
    MIXING:  cpu time    0.0070: real time    0.0070
    --------------------------------------------
      LOOP:  cpu time    1.0588: real time    1.0739

 eigenvalue-minimisations  :    32
 total energy-change (2. order) : 0.1640628E+01  (-0.2191225E+00)
 number of electron       6.0000018 magnetization 
 augmentation part        0.1151954 magnetization 

 Broyden mixing:
  rms(total) = 0.49033E+00    rms(broyden)= 0.49029E+00
  rms(prec ) = 0.53679E+00
  weight for this iteration     100.00

 eigenvalues of (default mixing * dielectric matrix)
  average eigenvalue GAMMA=   1.8763
  1.8763

 Free energy of the ion-electron system (eV)
  ---------------------------------------------------
  alpha Z        PSCENC =         0.03722024
  Ewald energy   TEWEN  =        82.01097072
  -Hartree energ DENC   =      -201.40553554
  -exchange      EXHF   =         0.00000000
  -V(xc)+E(xc)   XCENC  =        17.44144720
  PAW double counting   =       191.65154606     -192.35463795
  entropy T*S    EENTRO =        -0.00000000
  eigenvalues    EBANDS =       -80.46265509
  atomic energy  EATOM  =       172.08448920
  Solvation  Ediel_sol  =         0.00000000
  ---------------------------------------------------
  free energy    TOTEN  =       -10.99715516 eV

  energy without entropy =      -10.99715516  energy(sigma->0) =      -10.99715516


--------------------------------------------------------------------------------------------------------




----------------------------------------- Iteration    1(   7)  ---------------------------------------


    POTLOK:  cpu time    0.4753: real time    0.4768
    SETDIJ:  cpu time    0.0040: real time    0.0040
     EDDAV:  cpu time    0.1375: real time    0.1394
       DOS:  cpu time    0.0028: real time    0.0028
    CHARGE:  cpu time    0.2817: real time    0.2843
    MIXING:  cpu time    0.0081: real time    0.0081
    --------------------------------------------
      LOOP:  cpu time    0.9120: real time    0.9209

 eigenvalue-minimisations  :    16
 total energy-change (2. order) : 0.5012192E+00  (-0.1293387E+00)
 number of electron       6.0000018 magnetization 
 augmentation part        0.1068847 magnetization 

 Broyden mixing:
  rms(total) = 0.12109E+00    rms(broyden)= 0.12101E+00
  rms(prec ) = 0.13594E+00
  weight for this iteration     100.00

 eigenvalues of (default mixing * dielectric matrix)
  average eigenvalue GAMMA=   1.8121
  1.4806  2.1436

 Free energy of the ion-electron system (eV)
  ---------------------------------------------------
  alpha Z        PSCENC =         0.03722024
  Ewald energy   TEWEN  =        82.01097072
  -Hartree energ DENC   =      -211.71670053
  -exchange      EXHF   =         0.00000000
  -V(xc)+E(xc)   XCENC  =        18.35465326
  PAW double counting   =       318.64381373     -319.41638544
  entropy T*S    EENTRO =        -0.00000000
  eigenvalues    EBANDS =       -70.49399710
  atomic energy  EATOM  =       172.08448920
  Solvation  Ediel_sol  =         0.00000000
  ---------------------------------------------------
  free energy    TOTEN  =       -10.49593592 eV

  energy without entropy =      -10.49593592  energy(sigma->0) =      -10.49593592


--------------------------------------------------------------------------------------------------------




----------------------------------------- Iteration    1(   8)  ---------------------------------------


    POTLOK:  cpu time    0.4735: real time    0.4749
    SETDIJ:  cpu time    0.0048: real time    0.0048
     EDDAV:  cpu time    0.1223: real time    0.1227
       DOS:  cpu time    0.0029: real time    0.0029
    CHARGE:  cpu time    0.2629: real time    0.2637
    MIXING:  cpu time    0.0090: real time    0.0091
    --------------------------------------------
      LOOP:  cpu time    0.8794: real time    0.8837

 eigenvalue-minimisations  :    16
 total energy-change (2. order) : 0.1906177E-01  (-0.3997939E-02)
 number of electron       6.0000017 magnetization 
 augmentation part        0.1067444 magnetization 

 Broyden mixing:
  rms(total) = 0.25830E-01    rms(broyden)= 0.25820E-01
  rms(prec ) = 0.38309E-01
  weight for this iteration     100.00

 eigenvalues of (default mixing * dielectric matrix)
  average eigenvalue GAMMA=   1.7614
  1.2055  2.4466  1.6322

 Free energy of the ion-electron system (eV)
  ---------------------------------------------------
  alpha Z        PSCENC =         0.03722024
  Ewald energy   TEWEN  =        82.01097072
  -Hartree energ DENC   =      -212.57315380
  -exchange      EXHF   =         0.00000000
  -V(xc)+E(xc)   XCENC  =        18.47632174
  PAW double counting   =       352.52488714     -353.27722100
  entropy T*S    EENTRO =        -0.00000000
  eigenvalues    EBANDS =       -69.76038839
  atomic energy  EATOM  =       172.08448920
  Solvation  Ediel_sol  =         0.00000000
  ---------------------------------------------------
  free energy    TOTEN  =       -10.47687415 eV

  energy without entropy =      -10.47687415  energy(sigma->0) =      -10.47687415


--------------------------------------------------------------------------------------------------------




----------------------------------------- Iteration    1(   9)  ---------------------------------------


    POTLOK:  cpu time    0.4878: real time    0.4892
    SETDIJ:  cpu time    0.0059: real time    0.0059
     EDDAV:  cpu time    0.1039: real time    0.1042
       DOS:  cpu time    0.0030: real time    0.0030
    CHARGE:  cpu time    0.2493: real time    0.2500
    MIXING:  cpu time    0.0089: real time    0.0089
    --------------------------------------------
      LOOP:  cpu time    0.8618: real time    0.8670

 eigenvalue-minimisations  :    16
 total energy-change (2. order) :-0.1096107E-02  (-0.4479395E-03)
 number of electron       6.0000017 magnetization 
 augmentation part        0.1064867 magnetization 

 Broyden mixing:
  rms(total) = 0.15241E-01    rms(broyden)= 0.15235E-01
  rms(prec ) = 0.23902E-01
  weight for this iteration     100.00

 eigenvalues of (default mixing * dielectric matrix)
  average eigenvalue GAMMA=   2.0132
  3.0802  2.4502  0.9737  1.5486

 Free energy of the ion-electron system (eV)
  ---------------------------------------------------
  alpha Z        PSCENC =         0.03722024
  Ewald energy   TEWEN  =        82.01097072
  -Hartree energ DENC   =      -213.17906787
  -exchange      EXHF   =         0.00000000
  -V(xc)+E(xc)   XCENC  =        18.53208148
  PAW double counting   =       358.03145309     -358.77907744
  entropy T*S    EENTRO =        -0.00000000
  eigenvalues    EBANDS =       -69.21603968
  atomic energy  EATOM  =       172.08448920
  Solvation  Ediel_sol  =         0.00000000
  ---------------------------------------------------
  free energy    TOTEN  =       -10.47797026 eV

  energy without entropy =      -10.47797026  energy(sigma->0) =      -10.47797026


--------------------------------------------------------------------------------------------------------




----------------------------------------- Iteration    1(  10)  ---------------------------------------


    POTLOK:  cpu time    0.4663: real time    0.4678
    SETDIJ:  cpu time    0.0042: real time    0.0043
     EDDAV:  cpu time    0.0916: real time    0.0918
       DOS:  cpu time    0.0029: real time    0.0029
    CHARGE:  cpu time    0.2537: real time    0.2547
    MIXING:  cpu time    0.0097: real time    0.0098
    --------------------------------------------
      LOOP:  cpu time    0.8315: real time    0.8369

 eigenvalue-minimisations  :    16
 total energy-change (2. order) :-0.6631452E-02  (-0.6003261E-03)
 number of electron       6.0000017 magnetization 
 augmentation part        0.1061492 magnetization 

 Broyden mixing:
  rms(total) = 0.66459E-02    rms(broyden)= 0.66437E-02
  rms(prec ) = 0.11496E-01
  weight for this iteration     100.00

 eigenvalues of (default mixing * dielectric matrix)
  average eigenvalue GAMMA=   1.8935
  3.0375  2.5115  0.9372  1.4908  1.4908

 Free energy of the ion-electron system (eV)
  ---------------------------------------------------
  alpha Z        PSCENC =         0.03722024
  Ewald energy   TEWEN  =        82.01097072
  -Hartree energ DENC   =      -213.61292672
  -exchange      EXHF   =         0.00000000
  -V(xc)+E(xc)   XCENC  =        18.54535348
  PAW double counting   =       348.19733196     -348.94420650
  entropy T*S    EENTRO =        -0.00000000
  eigenvalues    EBANDS =       -68.80283409
  atomic energy  EATOM  =       172.08448920
  Solvation  Ediel_sol  =         0.00000000
  ---------------------------------------------------
  free energy    TOTEN  =       -10.48460171 eV

  energy without entropy =      -10.48460171  energy(sigma->0) =      -10.48460171


--------------------------------------------------------------------------------------------------------




----------------------------------------- Iteration    1(  11)  ---------------------------------------


    POTLOK:  cpu time    0.4677: real time    0.4690
    SETDIJ:  cpu time    0.0040: real time    0.0040
     EDDAV:  cpu time    0.0917: real time    0.0921
       DOS:  cpu time    0.0030: real time    0.0031
    CHARGE:  cpu time    0.2619: real time    0.2642
    MIXING:  cpu time    0.0103: real time    0.0103
    --------------------------------------------
      LOOP:  cpu time    0.8421: real time    0.8481

 eigenvalue-minimisations  :    16
 total energy-change (2. order) :-0.4248563E-02  (-0.8688453E-04)
 number of electron       6.0000017 magnetization 
 augmentation part        0.1062177 magnetization 

 Broyden mixing:
  rms(total) = 0.30300E-02    rms(broyden)= 0.30299E-02
  rms(prec ) = 0.73390E-02
  weight for this iteration     100.00

 eigenvalues of (default mixing * dielectric matrix)
  average eigenvalue GAMMA=   2.1164
  3.9442  2.7713  2.4671  1.5529  1.0382  0.9246

 Free energy of the ion-electron system (eV)
  ---------------------------------------------------
  alpha Z        PSCENC =         0.03722024
  Ewald energy   TEWEN  =        82.01097072
  -Hartree energ DENC   =      -213.67118905
  -exchange      EXHF   =         0.00000000
  -V(xc)+E(xc)   XCENC  =        18.54167390
  PAW double counting   =       348.77409174     -349.52086410
  entropy T*S    EENTRO =        -0.00000000
  eigenvalues    EBANDS =       -68.74524291
  atomic energy  EATOM  =       172.08448920
  Solvation  Ediel_sol  =         0.00000000
  ---------------------------------------------------
  free energy    TOTEN  =       -10.48885027 eV

  energy without entropy =      -10.48885027  energy(sigma->0) =      -10.48885027


--------------------------------------------------------------------------------------------------------




----------------------------------------- Iteration    1(  12)  ---------------------------------------


    POTLOK:  cpu time    0.4919: real time    0.4934
    SETDIJ:  cpu time    0.0040: real time    0.0041
     EDDAV:  cpu time    0.0934: real time    0.0936
       DOS:  cpu time    0.0019: real time    0.0019
    CHARGE:  cpu time    0.2499: real time    0.2508
    MIXING:  cpu time    0.0104: real time    0.0105
    --------------------------------------------
      LOOP:  cpu time    0.8546: real time    0.8603

 eigenvalue-minimisations  :    16
 total energy-change (2. order) :-0.4082424E-02  (-0.1439381E-03)
 number of electron       6.0000017 magnetization 
 augmentation part        0.1061620 magnetization 

 Broyden mixing:
  rms(total) = 0.25386E-02    rms(broyden)= 0.25384E-02
  rms(prec ) = 0.42997E-02
  weight for this iteration     100.00

 eigenvalues of (default mixing * dielectric matrix)
  average eigenvalue GAMMA=   2.1305
  4.7512  2.8370  2.3216  0.9634  1.0070  1.5166  1.5166

 Free energy of the ion-electron system (eV)
  ---------------------------------------------------
  alpha Z        PSCENC =         0.03722024
  Ewald energy   TEWEN  =        82.01097072
  -Hartree energ DENC   =      -213.82052611
  -exchange      EXHF   =         0.00000000
  -V(xc)+E(xc)   XCENC  =        18.54355893
  PAW double counting   =       349.47394809     -350.22101037
  entropy T*S    EENTRO =        -0.00000000
  eigenvalues    EBANDS =       -68.60158340
  atomic energy  EATOM  =       172.08448920
  Solvation  Ediel_sol  =         0.00000000
  ---------------------------------------------------
  free energy    TOTEN  =       -10.49293269 eV

  energy without entropy =      -10.49293269  energy(sigma->0) =      -10.49293269


--------------------------------------------------------------------------------------------------------




----------------------------------------- Iteration    1(  13)  ---------------------------------------


    POTLOK:  cpu time    0.4693: real time    0.4704
    SETDIJ:  cpu time    0.0039: real time    0.0039
     EDDAV:  cpu time    0.1184: real time    0.1189
       DOS:  cpu time    0.0031: real time    0.0031
    CHARGE:  cpu time    0.2512: real time    0.2520
    MIXING:  cpu time    0.0109: real time    0.0109
    --------------------------------------------
      LOOP:  cpu time    0.8597: real time    0.8640

 eigenvalue-minimisations  :    24
 total energy-change (2. order) :-0.1987191E-02  (-0.4902174E-04)
 number of electron       6.0000017 magnetization 
 augmentation part        0.1060432 magnetization 

 Broyden mixing:
  rms(total) = 0.17509E-02    rms(broyden)= 0.17487E-02
  rms(prec ) = 0.27850E-02
  weight for this iteration     100.00

 eigenvalues of (default mixing * dielectric matrix)
  average eigenvalue GAMMA=   2.2397
  6.1642  2.8662  2.2467  2.2467  1.5202  1.0460  0.9137  0.9137

 Free energy of the ion-electron system (eV)
  ---------------------------------------------------
  alpha Z        PSCENC =         0.03722024
  Ewald energy   TEWEN  =        82.01097072
  -Hartree energ DENC   =      -213.84685567
  -exchange      EXHF   =         0.00000000
  -V(xc)+E(xc)   XCENC  =        18.54057447
  PAW double counting   =       348.92932003     -349.67678081
  entropy T*S    EENTRO =        -0.00000000
  eigenvalues    EBANDS =       -68.57385806
  atomic energy  EATOM  =       172.08448920
  Solvation  Ediel_sol  =         0.00000000
  ---------------------------------------------------
  free energy    TOTEN  =       -10.49491989 eV

  energy without entropy =      -10.49491989  energy(sigma->0) =      -10.49491989


--------------------------------------------------------------------------------------------------------




----------------------------------------- Iteration    1(  14)  ---------------------------------------


    POTLOK:  cpu time    0.4725: real time    0.4740
    SETDIJ:  cpu time    0.0038: real time    0.0038
     EDDAV:  cpu time    0.1511: real time    0.1516
       DOS:  cpu time    0.0022: real time    0.0022
    CHARGE:  cpu time    0.2560: real time    0.2568
    MIXING:  cpu time    0.0116: real time    0.0116
    --------------------------------------------
      LOOP:  cpu time    0.9010: real time    0.9056

 eigenvalue-minimisations  :    32
 total energy-change (2. order) :-0.9781821E-03  (-0.1326499E-04)
 number of electron       6.0000017 magnetization 
 augmentation part        0.1061093 magnetization 

 Broyden mixing:
  rms(total) = 0.70385E-03    rms(broyden)= 0.70329E-03
  rms(prec ) = 0.14627E-02
  weight for this iteration     100.00

 eigenvalues of (default mixing * dielectric matrix)
  average eigenvalue GAMMA=   2.3820
  6.8523  3.7607  2.6522  2.1843  1.6242  1.2477  1.2477  0.9343  0.9343

 Free energy of the ion-electron system (eV)
  ---------------------------------------------------
  alpha Z        PSCENC =         0.03722024
  Ewald energy   TEWEN  =        82.01097072
  -Hartree energ DENC   =      -213.81618063
  -exchange      EXHF   =         0.00000000
  -V(xc)+E(xc)   XCENC  =        18.53710146
  PAW double counting   =       349.10481476     -349.85158822
  entropy T*S    EENTRO =        -0.00000000
  eigenvalues    EBANDS =       -68.60272560
  atomic energy  EATOM  =       172.08448920
  Solvation  Ediel_sol  =         0.00000000
  ---------------------------------------------------
  free energy    TOTEN  =       -10.49589807 eV

  energy without entropy =      -10.49589807  energy(sigma->0) =      -10.49589807


--------------------------------------------------------------------------------------------------------




----------------------------------------- Iteration    1(  15)  ---------------------------------------


    POTLOK:  cpu time    0.4692: real time    0.4706
    SETDIJ:  cpu time    0.0040: real time    0.0040
     EDDAV:  cpu time    0.0911: real time    0.0914
       DOS:  cpu time    0.0026: real time    0.0026
    CHARGE:  cpu time    0.2599: real time    0.2607
    MIXING:  cpu time    0.0128: real time    0.0128
    --------------------------------------------
      LOOP:  cpu time    0.8428: real time    0.8478

 eigenvalue-minimisations  :    16
 total energy-change (2. order) :-0.7781513E-03  (-0.9018782E-05)
 number of electron       6.0000017 magnetization 
 augmentation part        0.1061082 magnetization 

 Broyden mixing:
  rms(total) = 0.47405E-03    rms(broyden)= 0.47402E-03
  rms(prec ) = 0.77679E-03
  weight for this iteration     100.00

 eigenvalues of (default mixing * dielectric matrix)
  average eigenvalue GAMMA=   2.5639
  8.2091  4.4901  2.7561  2.5064  2.1840  1.5253  0.9486  0.9486  1.0355  1.0355

 Free energy of the ion-electron system (eV)
  ---------------------------------------------------
  alpha Z        PSCENC =         0.03722024
  Ewald energy   TEWEN  =        82.01097072
  -Hartree energ DENC   =      -213.80933136
  -exchange      EXHF   =         0.00000000
  -V(xc)+E(xc)   XCENC  =        18.53603252
  PAW double counting   =       349.28410708     -350.03097166
  entropy T*S    EENTRO =        -0.00000000
  eigenvalues    EBANDS =       -68.60919297
  atomic energy  EATOM  =       172.08448920
  Solvation  Ediel_sol  =         0.00000000
  ---------------------------------------------------
  free energy    TOTEN  =       -10.49667622 eV

  energy without entropy =      -10.49667622  energy(sigma->0) =      -10.49667622


--------------------------------------------------------------------------------------------------------




----------------------------------------- Iteration    1(  16)  ---------------------------------------


    POTLOK:  cpu time    0.5020: real time    0.5041
    SETDIJ:  cpu time    0.0043: real time    0.0043
     EDDAV:  cpu time    0.1334: real time    0.1338
       DOS:  cpu time    0.0004: real time    0.0004
    CHARGE:  cpu time    0.2707: real time    0.2715
    MIXING:  cpu time    0.0123: real time    0.0123
    --------------------------------------------
      LOOP:  cpu time    0.9255: real time    0.9321

 eigenvalue-minimisations  :    24
 total energy-change (2. order) :-0.3154726E-03  (-0.2241463E-05)
 number of electron       6.0000017 magnetization 
 augmentation part        0.1061102 magnetization 

 Broyden mixing:
  rms(total) = 0.23188E-03    rms(broyden)= 0.23182E-03
  rms(prec ) = 0.36159E-03
  weight for this iteration     100.00

 eigenvalues of (default mixing * dielectric matrix)
  average eigenvalue GAMMA=   2.6951
  8.8628  4.9933  3.2979  2.7185  2.3974  1.8952  1.4662  1.0724  1.0724  0.9351
  0.9351

 Free energy of the ion-electron system (eV)
  ---------------------------------------------------
  alpha Z        PSCENC =         0.03722024
  Ewald energy   TEWEN  =        82.01097072
  -Hartree energ DENC   =      -213.79626890
  -exchange      EXHF   =         0.00000000
  -V(xc)+E(xc)   XCENC  =        18.53477926
  PAW double counting   =       348.99245579     -349.73934236
  entropy T*S    EENTRO =        -0.00000000
  eigenvalues    EBANDS =       -68.62129564
  atomic energy  EATOM  =       172.08448920
  Solvation  Ediel_sol  =         0.00000000
  ---------------------------------------------------
  free energy    TOTEN  =       -10.49699169 eV

  energy without entropy =      -10.49699169  energy(sigma->0) =      -10.49699169


--------------------------------------------------------------------------------------------------------




----------------------------------------- Iteration    1(  17)  ---------------------------------------


    POTLOK:  cpu time    0.4658: real time    0.4671
    SETDIJ:  cpu time    0.0039: real time    0.0039
     EDDAV:  cpu time    0.1565: real time    0.1572
       DOS:  cpu time    0.0005: real time    0.0005
    CHARGE:  cpu time    0.2460: real time    0.2468
    MIXING:  cpu time    0.0135: real time    0.0136
    --------------------------------------------
      LOOP:  cpu time    0.8893: real time    0.8948

 eigenvalue-minimisations  :    32
 total energy-change (2. order) :-0.1211122E-03  (-0.5600668E-06)
 number of electron       6.0000017 magnetization 
 augmentation part        0.1061113 magnetization 

 Broyden mixing:
  rms(total) = 0.25029E-03    rms(broyden)= 0.25024E-03
  rms(prec ) = 0.29855E-03
  weight for this iteration     100.00

 eigenvalues of (default mixing * dielectric matrix)
  average eigenvalue GAMMA=   2.6608
  9.3011  5.3655  3.5709  2.6547  2.3595  2.1674  1.5256  1.0452  1.0452  1.0210
  0.9365  0.9365

 Free energy of the ion-electron system (eV)
  ---------------------------------------------------
  alpha Z        PSCENC =         0.03722024
  Ewald energy   TEWEN  =        82.01097072
  -Hartree energ DENC   =      -213.79531439
  -exchange      EXHF   =         0.00000000
  -V(xc)+E(xc)   XCENC  =        18.53466907
  PAW double counting   =       349.06574212     -349.81259773
  entropy T*S    EENTRO =        -0.00000000
  eigenvalues    EBANDS =       -68.62229203
  atomic energy  EATOM  =       172.08448920
  Solvation  Ediel_sol  =         0.00000000
  ---------------------------------------------------
  free energy    TOTEN  =       -10.49711280 eV

  energy without entropy =      -10.49711280  energy(sigma->0) =      -10.49711280


--------------------------------------------------------------------------------------------------------




----------------------------------------- Iteration    1(  18)  ---------------------------------------


    POTLOK:  cpu time    0.4622: real time    0.4635
    SETDIJ:  cpu time    0.0043: real time    0.0043
     EDDAV:  cpu time    0.1470: real time    0.1475
       DOS:  cpu time    0.0032: real time    0.0032
    CHARGE:  cpu time    0.2555: real time    0.2562
    MIXING:  cpu time    0.0136: real time    0.0136
    --------------------------------------------
      LOOP:  cpu time    0.8882: real time    0.8941

 eigenvalue-minimisations  :    32
 total energy-change (2. order) :-0.1545958E-04  (-0.1486496E-06)
 number of electron       6.0000017 magnetization 
 augmentation part        0.1061027 magnetization 

 Broyden mixing:
  rms(total) = 0.87091E-04    rms(broyden)= 0.86815E-04
  rms(prec ) = 0.12118E-03
  weight for this iteration     100.00

 eigenvalues of (default mixing * dielectric matrix)
  average eigenvalue GAMMA=   2.7454
  9.5772  5.7967  4.0616  2.9393  2.6308  2.0792  2.0343  1.5399  1.0746  0.9437
  0.9437  1.0348  1.0348

 Free energy of the ion-electron system (eV)
  ---------------------------------------------------
  alpha Z        PSCENC =         0.03722024
  Ewald energy   TEWEN  =        82.01097072
  -Hartree energ DENC   =      -213.80015649
  -exchange      EXHF   =         0.00000000
  -V(xc)+E(xc)   XCENC  =        18.53497378
  PAW double counting   =       349.06823830     -349.81516794
  entropy T*S    EENTRO =        -0.00000000
  eigenvalues    EBANDS =       -68.61769608
  atomic energy  EATOM  =       172.08448920
  Solvation  Ediel_sol  =         0.00000000
  ---------------------------------------------------
  free energy    TOTEN  =       -10.49712826 eV

  energy without entropy =      -10.49712826  energy(sigma->0) =      -10.49712826


--------------------------------------------------------------------------------------------------------




----------------------------------------- Iteration    1(  19)  ---------------------------------------


    POTLOK:  cpu time    0.4622: real time    0.4635
    SETDIJ:  cpu time    0.0041: real time    0.0041
     EDDAV:  cpu time    0.1196: real time    0.1200
       DOS:  cpu time    0.0027: real time    0.0027
    CHARGE:  cpu time    0.2489: real time    0.2497
    MIXING:  cpu time    0.0138: real time    0.0138
    --------------------------------------------
      LOOP:  cpu time    0.8544: real time    0.8595

 eigenvalue-minimisations  :    24
 total energy-change (2. order) :-0.2353354E-04  (-0.8027774E-07)
 number of electron       6.0000017 magnetization 
 augmentation part        0.1061071 magnetization 

 Broyden mixing:
  rms(total) = 0.71115E-04    rms(broyden)= 0.71087E-04
  rms(prec ) = 0.81766E-04
  weight for this iteration     100.00

 eigenvalues of (default mixing * dielectric matrix)
  average eigenvalue GAMMA=   2.6801
  9.5970  6.0674  4.2386  2.9954  2.6606  2.3993  2.0581  1.5117  0.9493  0.9493
  1.0404  1.0404  1.0067  1.0067

 Free energy of the ion-electron system (eV)
  ---------------------------------------------------
  alpha Z        PSCENC =         0.03722024
  Ewald energy   TEWEN  =        82.01097072
  -Hartree energ DENC   =      -213.79886491
  -exchange      EXHF   =         0.00000000
  -V(xc)+E(xc)   XCENC  =        18.53488483
  PAW double counting   =       349.11304687     -349.85992826
  entropy T*S    EENTRO =        -0.00000000
  eigenvalues    EBANDS =       -68.61897048
  atomic energy  EATOM  =       172.08448920
  Solvation  Ediel_sol  =         0.00000000
  ---------------------------------------------------
  free energy    TOTEN  =       -10.49715180 eV

  energy without entropy =      -10.49715180  energy(sigma->0) =      -10.49715180


--------------------------------------------------------------------------------------------------------




----------------------------------------- Iteration    1(  20)  ---------------------------------------


    POTLOK:  cpu time    0.4624: real time    0.4641
    SETDIJ:  cpu time    0.0041: real time    0.0041
     EDDAV:  cpu time    0.1546: real time    0.1550
       DOS:  cpu time    0.0004: real time    0.0004
    CHARGE:  cpu time    0.2485: real time    0.2493
    MIXING:  cpu time    0.0147: real time    0.0147
    --------------------------------------------
      LOOP:  cpu time    0.8886: real time    0.8935

 eigenvalue-minimisations  :    32
 total energy-change (2. order) :-0.4263861E-05  (-0.1066769E-07)
 number of electron       6.0000017 magnetization 
 augmentation part        0.1061042 magnetization 

 Broyden mixing:
  rms(total) = 0.28605E-04    rms(broyden)= 0.28558E-04
  rms(prec ) = 0.37534E-04
  weight for this iteration     100.00

 eigenvalues of (default mixing * dielectric matrix)
  average eigenvalue GAMMA=   2.7906
  9.7650  6.5540  4.9449  3.5686  2.6937  2.6937  2.2299  1.9537  1.5197  1.1063
  1.0052  1.0052  0.9487  0.9352  0.9352

 Free energy of the ion-electron system (eV)
  ---------------------------------------------------
  alpha Z        PSCENC =         0.03722024
  Ewald energy   TEWEN  =        82.01097072
  -Hartree energ DENC   =      -213.80008639
  -exchange      EXHF   =         0.00000000
  -V(xc)+E(xc)   XCENC  =        18.53494500
  PAW double counting   =       349.08561866     -349.83252438
  entropy T*S    EENTRO =        -0.00000000
  eigenvalues    EBANDS =       -68.61778912
  atomic energy  EATOM  =       172.08448920
  Solvation  Ediel_sol  =         0.00000000
  ---------------------------------------------------
  free energy    TOTEN  =       -10.49715606 eV

  energy without entropy =      -10.49715606  energy(sigma->0) =      -10.49715606


--------------------------------------------------------------------------------------------------------




----------------------------------------- Iteration    1(  21)  ---------------------------------------


    POTLOK:  cpu time    0.4659: real time    0.4672
    SETDIJ:  cpu time    0.0041: real time    0.0041
     EDDAV:  cpu time    0.0954: real time    0.0958
       DOS:  cpu time    0.0004: real time    0.0004
    CHARGE:  cpu time    0.2488: real time    0.2496
    MIXING:  cpu time    0.0162: real time    0.0163
    --------------------------------------------
      LOOP:  cpu time    0.8348: real time    0.8390

 eigenvalue-minimisations  :    16
 total energy-change (2. order) :-0.4492749E-05  (-0.5987109E-08)
 number of electron       6.0000017 magnetization 
 augmentation part        0.1061051 magnetization 

 Broyden mixing:
  rms(total) = 0.12951E-04    rms(broyden)= 0.12949E-04
  rms(prec ) = 0.15157E-04
  weight for this iteration     100.00

 eigenvalues of (default mixing * dielectric matrix)
  average eigenvalue GAMMA=   2.7682
  9.8354  6.8339  5.1636  3.8066  2.9022  2.4803  2.4803  2.0763  1.5115  1.1759
  1.1759  0.9552  0.9456  0.9456  1.0017  1.0017

 Free energy of the ion-electron system (eV)
  ---------------------------------------------------
  alpha Z        PSCENC =         0.03722024
  Ewald energy   TEWEN  =        82.01097072
  -Hartree energ DENC   =      -213.79951748
  -exchange      EXHF   =         0.00000000
  -V(xc)+E(xc)   XCENC  =        18.53491056
  PAW double counting   =       349.07581175     -349.82271607
  entropy T*S    EENTRO =        -0.00000000
  eigenvalues    EBANDS =       -68.61832947
  atomic energy  EATOM  =       172.08448920
  Solvation  Ediel_sol  =         0.00000000
  ---------------------------------------------------
  free energy    TOTEN  =       -10.49716055 eV

  energy without entropy =      -10.49716055  energy(sigma->0) =      -10.49716055


--------------------------------------------------------------------------------------------------------




----------------------------------------- Iteration    1(  22)  ---------------------------------------


    POTLOK:  cpu time    0.4641: real time    0.4655
    SETDIJ:  cpu time    0.0040: real time    0.0040
     EDDAV:  cpu time    0.1481: real time    0.1486
       DOS:  cpu time    0.0029: real time    0.0029
    CHARGE:  cpu time    0.2492: real time    0.2501
    MIXING:  cpu time    0.0156: real time    0.0156
    --------------------------------------------
      LOOP:  cpu time    0.8864: real time    0.8918

 eigenvalue-minimisations  :    32
 total energy-change (2. order) :-0.8441300E-06  (-0.7567440E-09)
 number of electron       6.0000017 magnetization 
 augmentation part        0.1061053 magnetization 

 Broyden mixing:
  rms(total) = 0.54239E-05    rms(broyden)= 0.54153E-05
  rms(prec ) = 0.72685E-05
  weight for this iteration     100.00

 eigenvalues of (default mixing * dielectric matrix)
  average eigenvalue GAMMA=   2.8415
  9.9040  7.3100  5.5460  4.0311  3.3139  2.7430  2.4688  2.4688  2.0455  1.5153
  1.0767  1.0128  1.0128  0.9484  0.9484  0.9797  0.9797

 Free energy of the ion-electron system (eV)
  ---------------------------------------------------
  alpha Z        PSCENC =         0.03722024
  Ewald energy   TEWEN  =        82.01097072
  -Hartree energ DENC   =      -213.79935233
  -exchange      EXHF   =         0.00000000
  -V(xc)+E(xc)   XCENC  =        18.53490760
  PAW double counting   =       349.08101498     -349.82791692
  entropy T*S    EENTRO =        -0.00000000
  eigenvalues    EBANDS =       -68.61849488
  atomic energy  EATOM  =       172.08448920
  Solvation  Ediel_sol  =         0.00000000
  ---------------------------------------------------
  free energy    TOTEN  =       -10.49716140 eV

  energy without entropy =      -10.49716140  energy(sigma->0) =      -10.49716140


--------------------------------------------------------------------------------------------------------




----------------------------------------- Iteration    1(  23)  ---------------------------------------


    POTLOK:  cpu time    0.4709: real time    0.4722
    SETDIJ:  cpu time    0.0041: real time    0.0041
     EDDAV:  cpu time    0.1161: real time    0.1164
       DOS:  cpu time    0.0030: real time    0.0031
    CHARGE:  cpu time    0.2527: real time    0.2535
    MIXING:  cpu time    0.0165: real time    0.0166
    --------------------------------------------
      LOOP:  cpu time    0.8663: real time    0.8720

 eigenvalue-minimisations  :    24
 total energy-change (2. order) :-0.6985633E-06  (-0.8224674E-09)
 number of electron       6.0000017 magnetization 
 augmentation part        0.1061051 magnetization 

 Broyden mixing:
  rms(total) = 0.48345E-05    rms(broyden)= 0.48325E-05
  rms(prec ) = 0.56878E-05
  weight for this iteration     100.00

 eigenvalues of (default mixing * dielectric matrix)
  average eigenvalue GAMMA=   2.7652
  9.8940  7.5343  5.5482  4.2655  3.2742  2.6930  2.5767  2.2873  2.0101  1.5185
  1.1513  1.1513  0.9428  0.9428  1.0167  1.0167  0.9748  0.9748

 Free energy of the ion-electron system (eV)
  ---------------------------------------------------
  alpha Z        PSCENC =         0.03722024
  Ewald energy   TEWEN  =        82.01097072
  -Hartree energ DENC   =      -213.79941712
  -exchange      EXHF   =         0.00000000
  -V(xc)+E(xc)   XCENC  =        18.53491187
  PAW double counting   =       349.08368209     -349.83058616
  entropy T*S    EENTRO =        -0.00000000
  eigenvalues    EBANDS =       -68.61843294
  atomic energy  EATOM  =       172.08448920
  Solvation  Ediel_sol  =         0.00000000
  ---------------------------------------------------
  free energy    TOTEN  =       -10.49716210 eV

  energy without entropy =      -10.49716210  energy(sigma->0) =      -10.49716210


--------------------------------------------------------------------------------------------------------




----------------------------------------- Iteration    1(  24)  ---------------------------------------


    POTLOK:  cpu time    0.4662: real time    0.4677
    SETDIJ:  cpu time    0.0040: real time    0.0040
     EDDAV:  cpu time    0.1475: real time    0.1479
       DOS:  cpu time    0.0024: real time    0.0025
    CHARGE:  cpu time    0.2491: real time    0.2498
    MIXING:  cpu time    0.0165: real time    0.0165
    --------------------------------------------
      LOOP:  cpu time    0.8894: real time    0.8940

 eigenvalue-minimisations  :    32
 total energy-change (2. order) :-0.5658984E-07  (-0.7069012E-10)
 number of electron       6.0000017 magnetization 
 augmentation part        0.1061052 magnetization 

 Broyden mixing:
  rms(total) = 0.21736E-05    rms(broyden)= 0.21700E-05
  rms(prec ) = 0.26294E-05
  weight for this iteration     100.00

 eigenvalues of (default mixing * dielectric matrix)
  average eigenvalue GAMMA=   2.8456
  9.9113  7.7657  5.7674  4.7600  3.8021  3.1280  2.5875  2.5875  2.3047  2.0082
  1.5174  1.0903  1.0198  1.0198  0.9591  0.9591  0.9921  0.9432  0.9432

 Free energy of the ion-electron system (eV)
  ---------------------------------------------------
  alpha Z        PSCENC =         0.03722024
  Ewald energy   TEWEN  =        82.01097072
  -Hartree energ DENC   =      -213.79928411
  -exchange      EXHF   =         0.00000000
  -V(xc)+E(xc)   XCENC  =        18.53490520
  PAW double counting   =       349.08390998     -349.83081227
  entropy T*S    EENTRO =        -0.00000000
  eigenvalues    EBANDS =       -68.61856112
  atomic energy  EATOM  =       172.08448920
  Solvation  Ediel_sol  =         0.00000000
  ---------------------------------------------------
  free energy    TOTEN  =       -10.49716215 eV

  energy without entropy =      -10.49716215  energy(sigma->0) =      -10.49716215


--------------------------------------------------------------------------------------------------------




----------------------------------------- Iteration    1(  25)  ---------------------------------------


    POTLOK:  cpu time    0.4645: real time    0.4658
    SETDIJ:  cpu time    0.0040: real time    0.0041
     EDDAV:  cpu time    0.0938: real time    0.0941
       DOS:  cpu time    0.0005: real time    0.0005
    CHARGE:  cpu time    0.2464: real time    0.2470
    MIXING:  cpu time    0.0177: real time    0.0178
    --------------------------------------------
      LOOP:  cpu time    0.8293: real time    0.8353

 eigenvalue-minimisations  :    16
 total energy-change (2. order) :-0.8895097E-07  (-0.1315534E-09)
 number of electron       6.0000017 magnetization 
 augmentation part        0.1061052 magnetization 

 Broyden mixing:
  rms(total) = 0.72898E-06    rms(broyden)= 0.72894E-06
  rms(prec ) = 0.90976E-06
  weight for this iteration     100.00

 eigenvalues of (default mixing * dielectric matrix)
  average eigenvalue GAMMA=   2.8578
  9.9152  7.8241  5.9657  4.8142  4.1260  2.9777  2.9777  2.4147  2.4147  2.3053
  1.9756  1.5176  1.0936  1.0124  1.0124  0.9615  0.9615  1.0003  0.9427  0.9427

 Free energy of the ion-electron system (eV)
  ---------------------------------------------------
  alpha Z        PSCENC =         0.03722024
  Ewald energy   TEWEN  =        82.01097072
  -Hartree energ DENC   =      -213.79927167
  -exchange      EXHF   =         0.00000000
  -V(xc)+E(xc)   XCENC  =        18.53490507
  PAW double counting   =       349.08248185     -349.82938447
  entropy T*S    EENTRO =        -0.00000000
  eigenvalues    EBANDS =       -68.61857318
  atomic energy  EATOM  =       172.08448920
  Solvation  Ediel_sol  =         0.00000000
  ---------------------------------------------------
  free energy    TOTEN  =       -10.49716224 eV

  energy without entropy =      -10.49716224  energy(sigma->0) =      -10.49716224


--------------------------------------------------------------------------------------------------------




----------------------------------------- Iteration    1(  26)  ---------------------------------------


    POTLOK:  cpu time    0.4680: real time    0.4692
    SETDIJ:  cpu time    0.0042: real time    0.0042
     EDDAV:  cpu time    0.1481: real time    0.1485
       DOS:  cpu time    0.0024: real time    0.0024
    CHARGE:  cpu time    0.3927: real time    0.3940
    MIXING:  cpu time    0.0177: real time    0.0178
    --------------------------------------------
      LOOP:  cpu time    1.0370: real time    1.0419

 eigenvalue-minimisations  :    32
 total energy-change (2. order) :-0.2510956E-07  (-0.8334666E-11)
 number of electron       6.0000017 magnetization 
 augmentation part        0.1061052 magnetization 

 Broyden mixing:
  rms(total) = 0.34606E-06    rms(broyden)= 0.34594E-06
  rms(prec ) = 0.48534E-06
  weight for this iteration     100.00

 eigenvalues of (default mixing * dielectric matrix)
  average eigenvalue GAMMA=   2.8609
  9.9164  8.0043  6.2972  5.3426  4.2771  3.4475  2.9993  2.5477  2.5477  2.2855
  2.0113  1.5177  1.0865  0.9667  0.9667  1.0163  1.0163  1.0011  0.9484  0.9484
  0.9349

 Free energy of the ion-electron system (eV)
  ---------------------------------------------------
  alpha Z        PSCENC =         0.03722024
  Ewald energy   TEWEN  =        82.01097072
  -Hartree energ DENC   =      -213.79927039
  -exchange      EXHF   =         0.00000000
  -V(xc)+E(xc)   XCENC  =        18.53490554
  PAW double counting   =       349.08277904     -349.82968174
  entropy T*S    EENTRO =        -0.00000000
  eigenvalues    EBANDS =       -68.61857488
  atomic energy  EATOM  =       172.08448920
  Solvation  Ediel_sol  =         0.00000000
  ---------------------------------------------------
  free energy    TOTEN  =       -10.49716227 eV

  energy without entropy =      -10.49716227  energy(sigma->0) =      -10.49716227


--------------------------------------------------------------------------------------------------------




----------------------------------------- Iteration    1(  27)  ---------------------------------------


    POTLOK:  cpu time    0.4633: real time    0.4647
    SETDIJ:  cpu time    0.0038: real time    0.0038
     EDDAV:  cpu time    0.0931: real time    0.0941
       DOS:  cpu time    0.0004: real time    0.0004
    CHARGE:  cpu time    0.2457: real time    0.2464
    MIXING:  cpu time    0.0185: real time    0.0186
    --------------------------------------------
      LOOP:  cpu time    0.8291: real time    0.8340

 eigenvalue-minimisations  :    16
 total energy-change (2. order) :-0.1171946E-07  (-0.3197442E-11)
 number of electron       6.0000017 magnetization 
 augmentation part        0.1061052 magnetization 

 Broyden mixing:
  rms(total) = 0.20154E-06    rms(broyden)= 0.20151E-06
  rms(prec ) = 0.26850E-06
  weight for this iteration     100.00

 eigenvalues of (default mixing * dielectric matrix)
  average eigenvalue GAMMA=   2.9171
  9.9148  8.1181  6.5663  5.5890  4.1025  4.1025  3.0272  3.0272  2.5207  2.5207
  2.2750  2.0015  1.5178  1.0855  0.9650  0.9650  1.0029  1.0029  1.0118  0.9455
  0.9455  0.9683

 Free energy of the ion-electron system (eV)
  ---------------------------------------------------
  alpha Z        PSCENC =         0.03722024
  Ewald energy   TEWEN  =        82.01097072
  -Hartree energ DENC   =      -213.79926102
  -exchange      EXHF   =         0.00000000
  -V(xc)+E(xc)   XCENC  =        18.53490543
  PAW double counting   =       349.08305678     -349.82995952
  entropy T*S    EENTRO =        -0.00000000
  eigenvalues    EBANDS =       -68.61858411
  atomic energy  EATOM  =       172.08448920
  Solvation  Ediel_sol  =         0.00000000
  ---------------------------------------------------
  free energy    TOTEN  =       -10.49716228 eV

  energy without entropy =      -10.49716228  energy(sigma->0) =      -10.49716228


--------------------------------------------------------------------------------------------------------




----------------------------------------- Iteration    1(  28)  ---------------------------------------


    POTLOK:  cpu time    0.4641: real time    0.4653
    SETDIJ:  cpu time    0.0040: real time    0.0040
     EDDAV:  cpu time    0.1474: real time    0.1479
       DOS:  cpu time    0.0033: real time    0.0033
    --------------------------------------------
      LOOP:  cpu time    0.6215: real time    0.6252

 eigenvalue-minimisations  :    32
 total energy-change (2. order) :-0.5337256E-08  (-0.1154632E-11)
 number of electron       6.0000017 magnetization 
 augmentation part        0.1061052 magnetization 

 Free energy of the ion-electron system (eV)
  ---------------------------------------------------
  alpha Z        PSCENC =         0.03722024
  Ewald energy   TEWEN  =        82.01097072
  -Hartree energ DENC   =      -213.79925797
  -exchange      EXHF   =         0.00000000
  -V(xc)+E(xc)   XCENC  =        18.53490538
  PAW double counting   =       349.08297492     -349.82987762
  entropy T*S    EENTRO =        -0.00000000
  eigenvalues    EBANDS =       -68.61858716
  atomic energy  EATOM  =       172.08448920
  Solvation  Ediel_sol  =         0.00000000
  ---------------------------------------------------
  free energy    TOTEN  =       -10.49716228 eV

  energy without entropy =      -10.49716228  energy(sigma->0) =      -10.49716228


--------------------------------------------------------------------------------------------------------




 average (electrostatic) potential at core
  the test charge radii are     0.5201  0.6991
  (the norm of the test charge is              1.0000)
       1 -44.2543       2 -44.2543       3 -59.8432
 
 
 
 E-fermi :  -5.6267     XC(G=0):  -0.1857     alpha+bet : -0.0380


 k-point     1 :       0.0000    0.0000    0.0000
  band No.  band energies     occupation 
      1     -17.7689      2.00000
      2     -10.8179      2.00000
      3      -5.7225      2.00000
      4      -5.0040      0.00000
      5      -0.4096      0.00000
      6       0.1691      0.00000
      7       0.4043      0.00000
      8       0.4775      0.00000


--------------------------------------------------------------------------------------------------------


 soft charge-density along one line, spin component           1
         0         1         2         3         4         5         6         7         8         9
 total charge-density along one line
 
 pseudopotential strength for first ion, spin component:           1
 -2.371  -4.093  -0.002  -0.000   0.001
 -4.093  -6.978  -0.007  -0.000   0.005
 -0.002  -0.007  -0.320  -0.000  -0.005
 -0.000  -0.000  -0.000  -0.326   0.000
  0.001   0.005  -0.005   0.000  -0.323
 total augmentation occupancy for first ion, spin component:           1
  3.962  -0.662   0.515   0.000  -0.387
 -0.662   0.141  -0.084   0.000   0.068
  0.515  -0.084   0.077   0.000  -0.036
  0.000   0.000   0.000   0.000   0.000
 -0.387   0.068  -0.036   0.000   0.059


------------------------ aborting loop because EDIFF is reached ----------------------------------------


    CHARGE:  cpu time    0.2539: real time    0.2548
    FORLOC:  cpu time    0.0016: real time    0.0016
    FORNL :  cpu time    0.0065: real time    0.0067
    STRESS:  cpu time    0.0225: real time    0.0226
    FORCOR:  cpu time    0.4134: real time    0.4144
    FORHAR:  cpu time    0.1128: real time    0.1130
    MIXING:  cpu time    0.0186: real time    0.0187
    OFIELD:  cpu time    0.0001: real time    0.0001

  FORCE on cell =-STRESS in cart. coord.  units (eV):
  Direction    XX          YY          ZZ          XY          YZ          ZX
  --------------------------------------------------------------------------------------
  Alpha Z     0.03722     0.03722     0.03722
  Ewald      29.27319    68.09600   -15.35824    -0.00000     0.00000     0.00000
  Hartree    77.59828    83.67096    52.53001    -0.00000    -0.00000    -0.00000
  E(xc)     -20.59796   -20.50023   -21.17917     0.00000    -0.00000    -0.00000
  Local    -166.02369  -197.57011   -80.52687     0.00000     0.00000    -0.00000
  n-local   -10.64856    -8.90397    -2.12429     0.00000    -0.00000    -0.00000
  augment     0.17029     0.06220     0.03400    -0.00000     0.00000     0.00000
  Kinetic    94.35042    82.83564    66.33486     0.00000     0.00000     0.00000
  Fock        0.00000     0.00000     0.00000     0.00000     0.00000     0.00000
  -------------------------------------------------------------------------------------
  Total       4.15918     7.72771    -0.25248     0.00000     0.00000     0.00000
  in kB       1.62689     3.02275    -0.09876     0.00000     0.00000     0.00000
  external pressure =        1.52 kB  Pullay stress =        0.00 kB


 VOLUME and BASIS-vectors are now :
 -----------------------------------------------------------------------------
  energy-cutoff  :      400.00
  volume of cell :     4096.00
      direct lattice vectors                 reciprocal lattice vectors
    16.000000000  0.000000000  0.000000000     0.062500000  0.000000000  0.000000000
     0.000000000 16.000000000  0.000000000     0.000000000  0.062500000  0.000000000
     0.000000000  0.000000000 16.000000000     0.000000000  0.000000000  0.062500000

  length of vectors
    16.000000000 16.000000000 16.000000000     0.062500000  0.062500000  0.062500000


 FORCES acting on ions
    electron-ion (+dipol)            ewald-force                    non-local-force                 convergence-correction
 -----------------------------------------------------------------------------------------------
   -.287E+02 0.424E+02 -.110E-06   0.374E+02 -.542E+02 -.118E-17   -.480E+01 0.656E+01 0.000E+00   0.485E-07 0.473E-06 -.144E-14
   -.287E+02 -.424E+02 0.121E-06   0.374E+02 0.542E+02 -.101E-17   -.480E+01 -.656E+01 0.000E+00   0.485E-07 -.473E-06 -.127E-15
   0.490E+02 0.103E-12 0.166E-06   -.747E+02 0.569E-17 0.153E-17   0.181E+02 0.000E+00 0.000E+00   0.274E-05 0.297E-14 -.665E-14
 -----------------------------------------------------------------------------------------------
   -.850E+01 0.189E-12 0.177E-06   0.000E+00 0.569E-17 -.663E-18   0.850E+01 -.888E-15 0.000E+00   0.283E-05 0.548E-14 -.821E-14
 
 
 POSITION                                       TOTAL-FORCE (eV/Angst)
 -----------------------------------------------------------------------------------
      8.29804      7.23229      8.00000         3.824496     -5.275244      0.000000
      8.29804      8.76771      8.00000         3.824496      5.275244      0.000000
      7.70196      8.00000      8.00000        -7.648991      0.000000      0.000000
 -----------------------------------------------------------------------------------
    total drift:                                0.001788      0.000000      0.000000


--------------------------------------------------------------------------------------------------------



  FREE ENERGIE OF THE ION-ELECTRON SYSTEM (eV)
  ---------------------------------------------------
  free  energy   TOTEN  =       -10.49716228 eV

  energy  without entropy=      -10.49716228  energy(sigma->0) =      -10.49716228
 


--------------------------------------------------------------------------------------------------------


    POTLOK:  cpu time    0.4706: real time    0.4718


--------------------------------------------------------------------------------------------------------




[...]
    --------------------------------------------
      LOOP:  cpu time    0.8445: real time    0.8522

 eigenvalue-minimisations  :    24
 total energy-change (2. order) :-0.6249337E-06  (-0.2055549E-08)
 number of electron       5.9999997 magnetization 
 augmentation part        0.0741348 magnetization 

 Broyden mixing:
  rms(total) = 0.28188E-05    rms(broyden)= 0.28187E-05
  rms(prec ) = 0.51814E-05
  weight for this iteration     100.00

 eigenvalues of (default mixing * dielectric matrix)
  average eigenvalue GAMMA=   2.2021
  6.8308  2.9618  2.6292  2.0417  1.1974  1.1974  0.9648  0.9977  0.9977

 Free energy of the ion-electron system (eV)
  ---------------------------------------------------
  alpha Z        PSCENC =         0.03722024
  Ewald energy   TEWEN  =        64.90209267
  -Hartree energ DENC   =      -200.35496006
  -exchange      EXHF   =         0.00000000
  -V(xc)+E(xc)   XCENC  =        17.67170510
  PAW double counting   =       243.82821940     -244.48234373
  entropy T*S    EENTRO =        -0.00000000
  eigenvalues    EBANDS =       -65.03055250
  atomic energy  EATOM  =       172.08448920
  Solvation  Ediel_sol  =         0.00000000
  ---------------------------------------------------
  free energy    TOTEN  =       -11.34412968 eV

  energy without entropy =      -11.34412968  energy(sigma->0) =      -11.34412968


--------------------------------------------------------------------------------------------------------




----------------------------------------- Iteration   10(  11)  ---------------------------------------


    POTLOK:  cpu time    0.4637: real time    0.4652
    SETDIJ:  cpu time    0.0041: real time    0.0041
     EDDAV:  cpu time    0.1460: real time    0.1464
       DOS:  cpu time    0.0030: real time    0.0030
    CHARGE:  cpu time    0.2465: real time    0.2473
    MIXING:  cpu time    0.0119: real time    0.0119
    --------------------------------------------
      LOOP:  cpu time    0.8803: real time    0.8886

 eigenvalue-minimisations  :    32
 total energy-change (2. order) :-0.2762854E-06  (-0.5250111E-09)
 number of electron       5.9999997 magnetization 
 augmentation part        0.0741348 magnetization 

 Broyden mixing:
  rms(total) = 0.34944E-05    rms(broyden)= 0.34932E-05
  rms(prec ) = 0.44566E-05
  weight for this iteration     100.00

 eigenvalues of (default mixing * dielectric matrix)
  average eigenvalue GAMMA=   2.4713
  8.2796  3.9839  2.7553  2.4454  2.0224  1.1647  1.1647  0.9559  0.9559  0.9847

 Free energy of the ion-electron system (eV)
  ---------------------------------------------------
  alpha Z        PSCENC =         0.03722024
  Ewald energy   TEWEN  =        64.90209267
  -Hartree energ DENC   =      -200.35488115
  -exchange      EXHF   =         0.00000000
  -V(xc)+E(xc)   XCENC  =        17.67169845
  PAW double counting   =       243.82974346     -244.48386702
  entropy T*S    EENTRO =        -0.00000000
  eigenvalues    EBANDS =       -65.03062579
  atomic energy  EATOM  =       172.08448920
  Solvation  Ediel_sol  =         0.00000000
  ---------------------------------------------------
  free energy    TOTEN  =       -11.34412996 eV

  energy without entropy =      -11.34412996  energy(sigma->0) =      -11.34412996


--------------------------------------------------------------------------------------------------------




----------------------------------------- Iteration   10(  12)  ---------------------------------------


    POTLOK:  cpu time    0.4639: real time    0.4653
    SETDIJ:  cpu time    0.0039: real time    0.0039
     EDDAV:  cpu time    0.1465: real time    0.1470
       DOS:  cpu time    0.0027: real time    0.0027
    CHARGE:  cpu time    0.2456: real time    0.2463
    MIXING:  cpu time    0.0124: real time    0.0124
    --------------------------------------------
      LOOP:  cpu time    0.8794: real time    0.8882

 eigenvalue-minimisations  :    32
 total energy-change (2. order) :-0.2195881E-06  (-0.5312675E-09)
 number of electron       5.9999997 magnetization 
 augmentation part        0.0741348 magnetization 

 Broyden mixing:
  rms(total) = 0.11976E-05    rms(broyden)= 0.11959E-05
  rms(prec ) = 0.15923E-05
  weight for this iteration     100.00

 eigenvalues of (default mixing * dielectric matrix)
  average eigenvalue GAMMA=   2.5027
  8.7618  4.3958  2.6976  2.6976  2.0670  1.6958  1.1549  1.1549  0.9614  0.9614
  0.9814

 Free energy of the ion-electron system (eV)
  ---------------------------------------------------
  alpha Z        PSCENC =         0.03722024
  Ewald energy   TEWEN  =        64.90209267
  -Hartree energ DENC   =      -200.35487520
  -exchange      EXHF   =         0.00000000
  -V(xc)+E(xc)   XCENC  =        17.67169644
  PAW double counting   =       243.82872123     -244.48284575
  entropy T*S    EENTRO =        -0.00000000
  eigenvalues    EBANDS =       -65.03062901
  atomic energy  EATOM  =       172.08448920
  Solvation  Ediel_sol  =         0.00000000
  ---------------------------------------------------
  free energy    TOTEN  =       -11.34413018 eV

  energy without entropy =      -11.34413018  energy(sigma->0) =      -11.34413018


--------------------------------------------------------------------------------------------------------




----------------------------------------- Iteration   10(  13)  ---------------------------------------


    POTLOK:  cpu time    0.4666: real time    0.4680
    SETDIJ:  cpu time    0.0039: real time    0.0039
     EDDAV:  cpu time    0.1462: real time    0.1467
       DOS:  cpu time    0.0026: real time    0.0026
    CHARGE:  cpu time    0.2410: real time    0.2417
    MIXING:  cpu time    0.0127: real time    0.0127
    --------------------------------------------
      LOOP:  cpu time    0.8779: real time    0.8864

 eigenvalue-minimisations  :    32
 total energy-change (2. order) :-0.5506027E-07  (-0.4143175E-10)
 number of electron       5.9999997 magnetization 
 augmentation part        0.0741348 magnetization 

 Broyden mixing:
  rms(total) = 0.47913E-06    rms(broyden)= 0.47905E-06
  rms(prec ) = 0.69177E-06
  weight for this iteration     100.00

 eigenvalues of (default mixing * dielectric matrix)
  average eigenvalue GAMMA=   2.5910
  9.3414  5.3217  3.0890  2.6573  2.3968  2.0300  1.1604  1.1604  0.9698  0.9947
  0.9851  0.9851

 Free energy of the ion-electron system (eV)
  ---------------------------------------------------
  alpha Z        PSCENC =         0.03722024
  Ewald energy   TEWEN  =        64.90209267
  -Hartree energ DENC   =      -200.35485678
  -exchange      EXHF   =         0.00000000
  -V(xc)+E(xc)   XCENC  =        17.67169576
  PAW double counting   =       243.82843587     -244.48256008
  entropy T*S    EENTRO =        -0.00000000
  eigenvalues    EBANDS =       -65.03064711
  atomic energy  EATOM  =       172.08448920
  Solvation  Ediel_sol  =         0.00000000
  ---------------------------------------------------
  free energy    TOTEN  =       -11.34413023 eV

  energy without entropy =      -11.34413023  energy(sigma->0) =      -11.34413023


--------------------------------------------------------------------------------------------------------




----------------------------------------- Iteration   10(  14)  ---------------------------------------


    POTLOK:  cpu time    0.4646: real time    0.4659
    SETDIJ:  cpu time    0.0041: real time    0.0041
     EDDAV:  cpu time    0.1441: real time    0.1467
       DOS:  cpu time    0.0026: real time    0.0026
    CHARGE:  cpu time    0.2416: real time    0.2423
    MIXING:  cpu time    0.0135: real time    0.0135
    --------------------------------------------
      LOOP:  cpu time    0.8760: real time    0.8852

 eigenvalue-minimisations  :    32
 total energy-change (2. order) :-0.2835290E-07  (-0.1667999E-10)
 number of electron       5.9999997 magnetization 
 augmentation part        0.0741348 magnetization 

 Broyden mixing:
  rms(total) = 0.31046E-06    rms(broyden)= 0.31021E-06
  rms(prec ) = 0.42808E-06
  weight for this iteration     100.00

 eigenvalues of (default mixing * dielectric matrix)
  average eigenvalue GAMMA=   2.6675
  9.6948  5.7478  3.6793  2.7555  2.5219  2.0219  2.0219  1.1540  1.1540  0.9662
  0.9662  0.9970  0.9970

 Free energy of the ion-electron system (eV)
  ---------------------------------------------------
  alpha Z        PSCENC =         0.03722024
  Ewald energy   TEWEN  =        64.90209267
  -Hartree energ DENC   =      -200.35484780
  -exchange      EXHF   =         0.00000000
  -V(xc)+E(xc)   XCENC  =        17.67169558
  PAW double counting   =       243.82858121     -244.48270529
  entropy T*S    EENTRO =        -0.00000000
  eigenvalues    EBANDS =       -65.03065606
  atomic energy  EATOM  =       172.08448920
  Solvation  Ediel_sol  =         0.00000000
  ---------------------------------------------------
  free energy    TOTEN  =       -11.34413026 eV

  energy without entropy =      -11.34413026  energy(sigma->0) =      -11.34413026


--------------------------------------------------------------------------------------------------------




----------------------------------------- Iteration   10(  15)  ---------------------------------------


    POTLOK:  cpu time    0.4670: real time    0.4683
    SETDIJ:  cpu time    0.0040: real time    0.0040
     EDDAV:  cpu time    0.1444: real time    0.1449
       DOS:  cpu time    0.0028: real time    0.0028
    CHARGE:  cpu time    0.2421: real time    0.2429
    MIXING:  cpu time    0.0135: real time    0.0135
    --------------------------------------------
      LOOP:  cpu time    0.8786: real time    0.8862

 eigenvalue-minimisations  :    32
 total energy-change (2. order) :-0.1305432E-07  (-0.3348433E-11)
 number of electron       5.9999997 magnetization 
 augmentation part        0.0741348 magnetization 

 Broyden mixing:
  rms(total) = 0.10666E-06    rms(broyden)= 0.10650E-06
  rms(prec ) = 0.16321E-06
  weight for this iteration     100.00

 eigenvalues of (default mixing * dielectric matrix)
  average eigenvalue GAMMA=   2.6879
  9.7737  6.1260  4.1587  3.0126  2.6855  2.4134  1.9851  1.1514  1.1514  0.9612
  0.9612  1.0114  1.0114  1.2271

 Free energy of the ion-electron system (eV)
  ---------------------------------------------------
  alpha Z        PSCENC =         0.03722024
  Ewald energy   TEWEN  =        64.90209267
  -Hartree energ DENC   =      -200.35485170
  -exchange      EXHF   =         0.00000000
  -V(xc)+E(xc)   XCENC  =        17.67169587
  PAW double counting   =       243.82865651     -244.48278069
  entropy T*S    EENTRO =        -0.00000000
  eigenvalues    EBANDS =       -65.03065238
  atomic energy  EATOM  =       172.08448920
  Solvation  Ediel_sol  =         0.00000000
  ---------------------------------------------------
  free energy    TOTEN  =       -11.34413027 eV

  energy without entropy =      -11.34413027  energy(sigma->0) =      -11.34413027


--------------------------------------------------------------------------------------------------------




----------------------------------------- Iteration   10(  16)  ---------------------------------------


    POTLOK:  cpu time    0.4662: real time    0.4673
    SETDIJ:  cpu time    0.0041: real time    0.0041
     EDDAV:  cpu time    0.1158: real time    0.1162
       DOS:  cpu time    0.0031: real time    0.0031
    --------------------------------------------
      LOOP:  cpu time    0.5934: real time    0.5998

 eigenvalue-minimisations  :    24
 total energy-change (2. order) :-0.2795872E-08  (-0.3659295E-12)
 number of electron       5.9999997 magnetization 
 augmentation part        0.0741348 magnetization 

 Free energy of the ion-electron system (eV)
  ---------------------------------------------------
  alpha Z        PSCENC =         0.03722024
  Ewald energy   TEWEN  =        64.90209267
  -Hartree energ DENC   =      -200.35484933
  -exchange      EXHF   =         0.00000000
  -V(xc)+E(xc)   XCENC  =        17.67169567
  PAW double counting   =       243.82867923     -244.48280340
  entropy T*S    EENTRO =        -0.00000000
  eigenvalues    EBANDS =       -65.03065455
  atomic energy  EATOM  =       172.08448920
  Solvation  Ediel_sol  =         0.00000000
  ---------------------------------------------------
  free energy    TOTEN  =       -11.34413028 eV

  energy without entropy =      -11.34413028  energy(sigma->0) =      -11.34413028


--------------------------------------------------------------------------------------------------------




 average (electrostatic) potential at core
  the test charge radii are     0.5201  0.6991
  (the norm of the test charge is              1.0000)
       1 -42.5304       2 -42.5304       3 -60.2705
 
 
 
 E-fermi :  -5.9350     XC(G=0):  -0.1901     alpha+bet : -0.0380


 k-point     1 :       0.0000    0.0000    0.0000
  band No.  band energies     occupation 
      1     -16.6384      2.00000
      2      -9.8813      2.00000
      3      -5.9956      2.00000
      4      -5.0090      0.00000
      5      -0.5101      0.00000
      6       0.1475      0.00000
      7       0.3782      0.00000
      8       0.4710      0.00000


--------------------------------------------------------------------------------------------------------


 soft charge-density along one line, spin component           1
         0         1         2         3         4         5         6         7         8         9
 total charge-density along one line
 
 pseudopotential strength for first ion, spin component:           1
 -2.355  -4.061  -0.001   0.000   0.001
 -4.061  -6.917  -0.004   0.000   0.003
 -0.001  -0.004  -0.333   0.000  -0.002
  0.000   0.000   0.000  -0.336  -0.000
  0.001   0.003  -0.002  -0.000  -0.334
 total augmentation occupancy for first ion, spin component:           1
  3.511  -0.644   0.334   0.000  -0.266
 -0.644   0.139  -0.063   0.000   0.054
  0.334  -0.063   0.036   0.000  -0.019
  0.000   0.000   0.000   0.000   0.000
 -0.266   0.054  -0.019   0.000   0.031


------------------------ aborting loop because EDIFF is reached ----------------------------------------


    CHARGE:  cpu time    0.2403: real time    0.2409
    FORLOC:  cpu time    0.0015: real time    0.0016
    FORNL :  cpu time    0.0065: real time    0.0065
    STRESS:  cpu time    0.0227: real time    0.0228
    FORCOR:  cpu time    0.4102: real time    0.4110
    FORHAR:  cpu time    0.1106: real time    0.1108
    MIXING:  cpu time    0.0144: real time    0.0145
    OFIELD:  cpu time    0.0001: real time    0.0001

  FORCE on cell =-STRESS in cart. coord.  units (eV):
  Direction    XX          YY          ZZ          XY          YZ          ZX
  --------------------------------------------------------------------------------------
  Alpha Z     0.03722     0.03722     0.03722
  Ewald      26.41973    53.85234   -15.37000     0.00000     0.00000    -0.00000
  Hartree    73.40641    78.79335    48.15508    -0.00000    -0.00000    -0.00000
  E(xc)     -19.63882   -19.54607   -20.20986     0.00000     0.00000     0.00000
  Local    -159.62936  -183.63109   -75.02507     0.00000     0.00000     0.00000
  n-local    -7.60124    -5.81208     0.23077     0.00000     0.00000     0.00000
  augment     0.22428     0.16940     0.04976    -0.00000     0.00000    -0.00000
  Kinetic    86.47203    75.88046    61.90627     0.00000     0.00000    -0.00000
  Fock        0.00000     0.00000     0.00000     0.00000     0.00000     0.00000
  -------------------------------------------------------------------------------------
  Total      -0.30975    -0.25647    -0.22583     0.00000     0.00000     0.00000
  in kB      -0.12116    -0.10032    -0.08834     0.00000     0.00000     0.00000
  external pressure =       -0.10 kB  Pullay stress =        0.00 kB


 VOLUME and BASIS-vectors are now :
 -----------------------------------------------------------------------------
  energy-cutoff  :      400.00
  volume of cell :     4096.00
      direct lattice vectors                 reciprocal lattice vectors
    16.000000000  0.000000000  0.000000000     0.062500000  0.000000000  0.000000000
     0.000000000 16.000000000  0.000000000     0.000000000  0.062500000  0.000000000
     0.000000000  0.000000000 16.000000000     0.000000000  0.000000000  0.062500000

  length of vectors
    16.000000000 16.000000000 16.000000000     0.062500000  0.062500000  0.062500000


 FORCES acting on ions
    electron-ion (+dipol)            ewald-force                    non-local-force                 convergence-correction
 -----------------------------------------------------------------------------------------------
   -.258E+02 0.356E+02 -.117E-06   0.290E+02 -.398E+02 -.282E-17   -.327E+01 0.422E+01 0.000E+00   -.349E-06 -.186E-07 -.850E-15
   -.258E+02 -.356E+02 0.804E-07   0.290E+02 0.398E+02 -.191E-17   -.327E+01 -.422E+01 0.000E+00   -.349E-06 0.186E-07 -.614E-15
   0.374E+02 -.897E-13 0.116E-05   -.581E+02 0.711E-14 0.407E-17   0.207E+02 0.000E+00 0.000E+00   -.214E-05 -.852E-15 -.563E-14
 -----------------------------------------------------------------------------------------------
   -.141E+02 -.826E-13 0.112E-05   0.000E+00 0.569E-17 -.663E-18   0.141E+02 0.000E+00 0.000E+00   -.284E-05 0.142E-14 -.709E-14
 
 
 POSITION                                       TOTAL-FORCE (eV/Angst)
 -----------------------------------------------------------------------------------
      8.33850      7.13424      8.00000        -0.001085     -0.001569      0.000000
      8.33850      8.86576      8.00000        -0.001085      0.001569      0.000000
      7.62104      8.00000      8.00000         0.002169      0.000000      0.000000
 -----------------------------------------------------------------------------------
    total drift:                                0.000126     -0.000000      0.000001


--------------------------------------------------------------------------------------------------------



  FREE ENERGIE OF THE ION-ELECTRON SYSTEM (eV)
  ---------------------------------------------------
  free  energy   TOTEN  =       -11.34413028 eV

  energy  without entropy=      -11.34413028  energy(sigma->0) =      -11.34413028
 
 d Force = 0.2995089E-03[-0.309E-06, 0.599E-03]  d Energy = 0.3006746E-03-0.117E-05
 d Force =-0.3250580E+00[-0.326E+00,-0.324E+00]  d Ewald  =-0.3250567E+00-0.130E-05


--------------------------------------------------------------------------------------------------------


    POTLOK:  cpu time    0.4697: real time    0.4708


--------------------------------------------------------------------------------------------------------




--------------------------------------------------------------------------------------------------------


  
 reached required accuracy - stopping structural energy minimisation
     LOOP+:  cpu time   14.9082: real time   15.0987
    4ORBIT:  cpu time    0.0000: real time    0.0000

 total amount of memory used by VASP on root node    35862. kBytes
========================================================================

   base      :      30000. kBytes
   nonl-proj :        272. kBytes
   fftplans  :       2081. kBytes
   grid      :       3407. kBytes
   one-center:          3. kBytes
   wavefun   :         99. kBytes
 
  
  
 General timing and accounting informations for this job:
 ========================================================
  
                  Total CPU time used (sec):      174.973
                            User time (sec):       25.360
                          System time (sec):      149.613
                         Elapsed time (sec):      177.957
  
                   Maximum memory used (kb):       66948.
                   Average memory used (kb):           0.
  
                          Minor page faults:        64903
                          Major page faults:           11
                 Voluntary context switches:        10622
