 running on   96 total cores
 distrk:  each k-point on   96 cores,    1 groups
 distr:  one band on   48 cores,    2 groups
 using from now: INCAR     
 vasp.5.4.1 05Feb16 (build Feb 08 2018 09:21:51) complex                        
  
 POSCAR found :  2 types and       3 ions

 ----------------------------------------------------------------------------- 
|                                                                             |
|           W    W    AA    RRRRR   N    N  II  N    N   GGGG   !!!           |
|           W    W   A  A   R    R  NN   N  II  NN   N  G    G  !!!           |
|           W    W  A    A  R    R  N N  N  II  N N  N  G       !!!           |
|           W WW W  AAAAAA  RRRRR   N  N N  II  N  N N  G  GGG   !            |
|           WW  WW  A    A  R   R   N   NN  II  N   NN  G    G                |
|           W    W  A    A  R    R  N    N  II  N    N   GGGG   !!!           |
|                                                                             |
|      For optimal performance we recommend to set                            |
|        NCORE= 4 - approx SQRT( number of cores)                             |
|      NCORE specifies how many cores store one orbital (NPAR=cpu/NCORE).     |
|      This setting can  greatly improve the performance of VASP for DFT.     |
|      The default, NPAR=number of cores might be grossly inefficient         |
|      on modern multi-core architectures or massively parallel machines.     |
|      Do your own testing !!!!                                               |
|      Unfortunately you need to use the default for GW and RPA calculations. |
|      (for HF NCORE is supported but not extensively tested yet)             |
|                                                                             |
 ----------------------------------------------------------------------------- 

 LDA part: xc-table for Pade appr. of Perdew
 POSCAR, INCAR and KPOINTS ok, starting setup
 WARNING: small aliasing (wrap around) errors must be expected
 FFT: planning ...
 WAVECAR not read
 entering main loop
       N       E                     dE             d eps       ncg     rms          rms(c)
DAV:   1     0.284896817135E+02    0.28490E+02   -0.10715E+03    24   0.246E+02
DAV:   2    -0.641026459099E+01   -0.34900E+02   -0.34900E+02    24   0.743E+01
DAV:   3    -0.125824825293E+02   -0.61722E+01   -0.61722E+01    24   0.385E+01
DAV:   4    -0.126369999438E+02   -0.54517E-01   -0.54517E-01    16   0.421E+00
DAV:   5    -0.126377833649E+02   -0.78342E-03   -0.78342E-03    16   0.521E-01    0.923E+00
DAV:   6    -0.109971551616E+02    0.16406E+01   -0.21912E+00    32   0.745E+00    0.490E+00
DAV:   7    -0.104959359184E+02    0.50122E+00   -0.12934E+00    16   0.568E+00    0.121E+00
DAV:   8    -0.104768741484E+02    0.19062E-01   -0.39979E-02    16   0.136E+00    0.258E-01
DAV:   9    -0.104779702554E+02   -0.10961E-02   -0.44794E-03    16   0.520E-01    0.152E-01
DAV:  10    -0.104846017073E+02   -0.66315E-02   -0.60033E-03    16   0.388E-01    0.665E-02
DAV:  11    -0.104888502708E+02   -0.42486E-02   -0.86885E-04    16   0.152E-01    0.303E-02
DAV:  12    -0.104929326949E+02   -0.40824E-02   -0.14394E-03    16   0.152E-01    0.254E-02
DAV:  13    -0.104949198862E+02   -0.19872E-02   -0.49022E-04    24   0.970E-02    0.175E-02
DAV:  14    -0.104958980683E+02   -0.97818E-03   -0.13265E-04    32   0.535E-02    0.704E-03
DAV:  15    -0.104966762195E+02   -0.77815E-03   -0.90188E-05    16   0.366E-02    0.474E-03
DAV:  16    -0.104969916921E+02   -0.31547E-03   -0.22415E-05    24   0.185E-02    0.232E-03
DAV:  17    -0.104971128043E+02   -0.12111E-03   -0.56007E-06    32   0.965E-03    0.250E-03
DAV:  18    -0.104971282639E+02   -0.15460E-04   -0.14865E-06    32   0.607E-03    0.871E-04
DAV:  19    -0.104971517974E+02   -0.23534E-04   -0.80278E-07    24   0.367E-03    0.711E-04
DAV:  20    -0.104971560613E+02   -0.42639E-05   -0.10668E-07    32   0.163E-03    0.286E-04
DAV:  21    -0.104971605540E+02   -0.44927E-05   -0.59871E-08    16   0.955E-04    0.130E-04
DAV:  22    -0.104971613982E+02   -0.84413E-06   -0.75674E-09    32   0.404E-04    0.542E-05
DAV:  23    -0.104971620967E+02   -0.69856E-06   -0.82247E-09    24   0.381E-04    0.483E-05
DAV:  24    -0.104971621533E+02   -0.56590E-07   -0.70690E-10    32   0.129E-04    0.217E-05
DAV:  25    -0.104971622423E+02   -0.88951E-07   -0.13155E-09    16   0.162E-04    0.729E-06
DAV:  26    -0.104971622674E+02   -0.25110E-07   -0.83347E-11    32   0.487E-05    0.346E-06
DAV:  27    -0.104971622791E+02   -0.11719E-07   -0.31974E-11    16   0.403E-05    0.202E-06
DAV:  28    -0.104971622844E+02   -0.53373E-08   -0.11546E-11    32   0.219E-05
   1 F= -.10497162E+02 E0= -.10497162E+02  d E =-.104972E+02
 curvature:   0.00 expect dE= 0.000E+00 dE for cont linesearch  0.000E+00
 trial: gam= 0.00000 g(F)=  0.692E+01 g(S)=  0.000E+00 ort = 0.000E+00 (trialstep = 0.100E+01)
 search vector abs. value=  0.692E+01
 bond charge predicted
       N       E                     dE             d eps       ncg     rms          rms(c)
DAV:   1    -0.964026980347E+01    0.85689E+00   -0.37449E+02    16   0.147E+02    0.855E+00
DAV:   2    -0.885284173441E+01    0.78743E+00   -0.20214E+01    24   0.217E+01    0.403E+00
DAV:   3    -0.894294035761E+01   -0.90099E-01   -0.48885E-01    32   0.448E+00    0.251E+00
DAV:   4    -0.906543669152E+01   -0.12250E+00   -0.23648E-01    24   0.362E+00    0.385E-01
DAV:   5    -0.906261235558E+01    0.28243E-02   -0.62535E-02    32   0.136E+00    0.172E-01
DAV:   6    -0.906402033883E+01   -0.14080E-02   -0.27745E-03    24   0.334E-01    0.875E-02
DAV:   7    -0.906560441723E+01   -0.15841E-02   -0.10185E-03    16   0.198E-01    0.403E-02
DAV:   8    -0.906657264883E+01   -0.96823E-03   -0.76155E-04    16   0.117E-01    0.265E-02
DAV:   9    -0.906759747998E+01   -0.10248E-02   -0.21530E-04    16   0.713E-02    0.269E-02
DAV:  10    -0.906801861807E+01   -0.42114E-03   -0.61414E-05    16   0.328E-02    0.102E-02
DAV:  11    -0.906851022813E+01   -0.49161E-03   -0.96059E-05    24   0.392E-02    0.821E-03
DAV:  12    -0.906867552246E+01   -0.16529E-03   -0.45581E-06    24   0.993E-03    0.451E-03
DAV:  13    -0.906882388314E+01   -0.14836E-03   -0.11879E-05    32   0.142E-02    0.313E-03
DAV:  14    -0.906886888105E+01   -0.44998E-04   -0.13379E-06    32   0.600E-03    0.101E-03
DAV:  15    -0.906887783079E+01   -0.89497E-05   -0.25560E-07    32   0.210E-03    0.564E-04
DAV:  16    -0.906888796096E+01   -0.10130E-04   -0.26267E-07    32   0.189E-03    0.431E-04
DAV:  17    -0.906888863980E+01   -0.67884E-06   -0.67759E-09    16   0.366E-04    0.189E-04
DAV:  18    -0.906889028143E+01   -0.16416E-05   -0.25263E-08    24   0.632E-04    0.101E-04
DAV:  19    -0.906889093313E+01   -0.65169E-06   -0.79669E-09    16   0.354E-04    0.405E-05
DAV:  20    -0.906889101482E+01   -0.81690E-07   -0.52790E-10    24   0.105E-04    0.272E-05
DAV:  21    -0.906889112417E+01   -0.10935E-06   -0.12027E-09    16   0.149E-04    0.155E-05
DAV:  22    -0.906889114058E+01   -0.16412E-07   -0.74056E-11    32   0.383E-05    0.994E-06
DAV:  23    -0.906889115414E+01   -0.13562E-07   -0.43681E-11    24   0.374E-05    0.327E-06
DAV:  24    -0.906889115648E+01   -0.23398E-08   -0.29843E-12    32   0.101E-05
   2 F= -.90688912E+01 E0= -.90688912E+01  d E =0.142827E+01
 trial-energy change:    1.428271  1 .order   -1.272347   -6.918817    4.374122
 step:   0.3073(harm=  0.6127)  dis= 0.07819  next Energy=   -11.481756 (dE=-0.985E+00)
 bond charge predicted
       N       E                     dE             d eps       ncg     rms          rms(c)
DAV:   1    -0.110819984305E+02   -0.20131E+01   -0.17285E+02    16   0.981E+01    0.415E+00
DAV:   2    -0.114033208415E+02   -0.32132E+00   -0.53849E+00    32   0.188E+01    0.287E+00
DAV:   3    -0.113117448804E+02    0.91576E-01   -0.86357E-01    24   0.427E+00    0.113E+00
DAV:   4    -0.113128748803E+02   -0.11300E-02   -0.22333E-02    16   0.865E-01    0.613E-01
DAV:   5    -0.113176284729E+02   -0.47536E-02   -0.76942E-03    24   0.662E-01    0.810E-02
DAV:   6    -0.113193427945E+02   -0.17143E-02   -0.23193E-03    16   0.239E-01    0.654E-02
DAV:   7    -0.113206758304E+02   -0.13330E-02   -0.58977E-04    16   0.129E-01    0.180E-02
DAV:   8    -0.113221075343E+02   -0.14317E-02   -0.24293E-04    24   0.762E-02    0.148E-02
DAV:   9    -0.113234818619E+02   -0.13743E-02   -0.51944E-04    16   0.805E-02    0.899E-03
DAV:  10    -0.113239857973E+02   -0.50394E-03   -0.70110E-05    24   0.325E-02    0.519E-03
DAV:  11    -0.113242445294E+02   -0.25873E-03   -0.31910E-05    24   0.237E-02    0.515E-03
DAV:  12    -0.113243521345E+02   -0.10761E-03   -0.10678E-05    32   0.142E-02    0.200E-03
DAV:  13    -0.113243999625E+02   -0.47828E-04   -0.30609E-06    32   0.749E-03    0.137E-03
DAV:  14    -0.113244173530E+02   -0.17390E-04   -0.66896E-07    32   0.351E-03    0.316E-04
DAV:  15    -0.113244262601E+02   -0.89071E-05   -0.18364E-07    32   0.169E-03    0.264E-04
DAV:  16    -0.113244292643E+02   -0.30041E-05   -0.44178E-08    24   0.810E-04    0.833E-05
DAV:  17    -0.113244307022E+02   -0.14380E-05   -0.10968E-08    24   0.451E-04    0.884E-05
DAV:  18    -0.113244311518E+02   -0.44955E-06   -0.38278E-09    24   0.276E-04    0.412E-05
DAV:  19    -0.113244313440E+02   -0.19224E-06   -0.17159E-09    16   0.188E-04    0.226E-05
DAV:  20    -0.113244313962E+02   -0.52177E-07   -0.25763E-10    24   0.712E-05    0.282E-05
DAV:  21    -0.113244314202E+02   -0.23967E-07   -0.18710E-10    32   0.663E-05    0.408E-06
DAV:  22    -0.113244314324E+02   -0.12204E-07   -0.42650E-11    16   0.365E-05    0.416E-06
DAV:  23    -0.113244314377E+02   -0.53409E-08   -0.92371E-12    32   0.217E-05
   3 F= -.11324431E+02 E0= -.11324431E+02  d E =-.827269E+00
 curvature:  -0.12 expect dE=-0.611E-02 dE for cont linesearch -0.411E-02
 ZBRENT: interpolating
 opt :   0.2867  next Energy=   -11.329516 (dE=-0.832E+00)
 bond charge predicted
       N       E                     dE             d eps       ncg     rms          rms(c)
DAV:   1    -0.113317262904E+02   -0.72949E-02   -0.20983E-01    16   0.374E+00    0.180E-01
DAV:   2    -0.113312290759E+02    0.49721E-03   -0.31355E-03    24   0.354E-01    0.936E-02
DAV:   3    -0.113312866132E+02   -0.57537E-04   -0.65963E-04    32   0.122E-01    0.362E-02
DAV:   4    -0.113313142990E+02   -0.27686E-04   -0.63501E-05    32   0.427E-02    0.108E-02
DAV:   5    -0.113313186413E+02   -0.43423E-05   -0.77639E-06    32   0.152E-02    0.219E-03
DAV:   6    -0.113313236540E+02   -0.50127E-05   -0.10850E-06    32   0.585E-03    0.855E-04
DAV:   7    -0.113313269794E+02   -0.33254E-05   -0.16860E-07    16   0.222E-03    0.489E-04
DAV:   8    -0.113313343772E+02   -0.73978E-05   -0.43479E-07    24   0.217E-03    0.242E-04
DAV:   9    -0.113313380979E+02   -0.37207E-05   -0.18788E-07    24   0.139E-03    0.262E-04
DAV:  10    -0.113313424798E+02   -0.43818E-05   -0.25998E-07    32   0.144E-03    0.119E-04
DAV:  11    -0.113313438881E+02   -0.14083E-05   -0.31423E-08    32   0.562E-04    0.520E-05
DAV:  12    -0.113313448408E+02   -0.95277E-06   -0.27622E-08    32   0.501E-04    0.338E-05
DAV:  13    -0.113313452019E+02   -0.36103E-06   -0.58057E-09    32   0.265E-04    0.159E-05
DAV:  14    -0.113313452704E+02   -0.68479E-07   -0.46622E-10    32   0.833E-05    0.933E-06
DAV:  15    -0.113313453463E+02   -0.75987E-07   -0.39471E-10    32   0.101E-04    0.453E-06
DAV:  16    -0.113313453594E+02   -0.13102E-07   -0.13802E-11    24   0.247E-05    0.283E-06
DAV:  17    -0.113313453659E+02   -0.64918E-08   -0.10925E-11    24   0.229E-05
   4 F= -.11331345E+02 E0= -.11331345E+02  d E =-.834183E+00
 curvature:  -0.14 expect dE=-0.263E-02 dE for cont linesearch -0.634E-03
 ZBRENT: interpolating
 opt :   0.2758  next Energy=   -11.332325 (dE=-0.835E+00)
 bond charge predicted
       N       E                     dE             d eps       ncg     rms          rms(c)
DAV:   1    -0.113323931455E+02   -0.10478E-02   -0.59891E-02    16   0.200E+00    0.963E-02
DAV:   2    -0.113322450813E+02    0.14806E-03   -0.87061E-04    16   0.188E-01    0.506E-02
DAV:   3    -0.113322722797E+02   -0.27198E-04   -0.30914E-04    32   0.862E-02    0.213E-02
DAV:   4    -0.113322734795E+02   -0.11998E-05   -0.33774E-05    32   0.279E-02    0.887E-03
DAV:   5    -0.113322771013E+02   -0.36219E-05   -0.21598E-06    32   0.103E-02    0.116E-03
DAV:   6    -0.113322785377E+02   -0.14364E-05   -0.56532E-07    32   0.424E-03    0.904E-04
DAV:   7    -0.113322793270E+02   -0.78926E-06   -0.77997E-08    32   0.151E-03    0.302E-04
DAV:   8    -0.113322812763E+02   -0.19493E-05   -0.62677E-08    16   0.101E-03    0.201E-04
DAV:   9    -0.113322834596E+02   -0.21833E-05   -0.13652E-07    24   0.115E-03    0.142E-04
DAV:  10    -0.113322849203E+02   -0.14607E-05   -0.53407E-08    32   0.633E-04    0.415E-05
DAV:  11    -0.113322854300E+02   -0.50975E-06   -0.85982E-09    32   0.259E-04    0.451E-05
DAV:  12    -0.113322860557E+02   -0.62570E-06   -0.20731E-08    32   0.426E-04    0.263E-05
DAV:  13    -0.113322861785E+02   -0.12274E-06   -0.14277E-09    32   0.145E-04    0.184E-05
DAV:  14    -0.113322862347E+02   -0.56194E-07   -0.44931E-10    32   0.819E-05    0.651E-06
DAV:  15    -0.113322862649E+02   -0.30192E-07   -0.10772E-10    32   0.518E-05    0.498E-06
DAV:  16    -0.113322862767E+02   -0.11879E-07   -0.20979E-11    32   0.285E-05    0.181E-06
DAV:  17    -0.113322862805E+02   -0.38001E-08   -0.67857E-12    16   0.148E-05
   5 F= -.11332286E+02 E0= -.11332286E+02  d E =-.835124E+00
 curvature:  -0.22 expect dE=-0.272E-02 dE for cont linesearch -0.442E-06
 ZBRENT: interpolating
 opt :   0.2760  next Energy=   -11.332287 (dE=-0.835E+00)
 bond charge predicted
       N       E                     dE             d eps       ncg     rms          rms(c)
DAV:   1    -0.113322867573E+02   -0.48060E-06   -0.26131E-05    32   0.418E-02    0.208E-03
DAV:   2    -0.113322866533E+02    0.10401E-06   -0.36570E-07    16   0.331E-03    0.102E-03
DAV:   3    -0.113322866671E+02   -0.13733E-07   -0.71529E-08    32   0.137E-03    0.432E-04
DAV:   4    -0.113322866764E+02   -0.93789E-08   -0.61967E-09    32   0.478E-04
   6 F= -.11332287E+02 E0= -.11332287E+02  d E =-.835124E+00
 curvature:  -0.21 expect dE=-0.261E-02 dE for cont linesearch -0.872E-10
 trial: gam= 0.00179 g(F)=  0.123E-01 g(S)=  0.000E+00 ort =-0.534E-04 (trialstep = 0.855E+00)
 search vector abs. value=  0.123E-01
 bond charge predicted
       N       E                     dE             d eps       ncg     rms          rms(c)
DAV:   1    -0.113401981622E+02   -0.79115E-02   -0.28005E-01    16   0.490E+00    0.151E-01
DAV:   2    -0.113401662462E+02    0.31916E-04   -0.18333E-03    24   0.309E-01    0.951E-02
DAV:   3    -0.113403462223E+02   -0.17998E-03   -0.11071E-04    32   0.793E-02    0.325E-02
DAV:   4    -0.113403963042E+02   -0.50082E-04   -0.17905E-05    32   0.353E-02    0.664E-03
DAV:   5    -0.113404027274E+02   -0.64233E-05   -0.37513E-06    32   0.108E-02    0.195E-03
DAV:   6    -0.113404084835E+02   -0.57561E-05   -0.35854E-07    32   0.332E-03    0.997E-04
DAV:   7    -0.113404173250E+02   -0.88415E-05   -0.62063E-07    24   0.321E-03    0.665E-04
DAV:   8    -0.113404257712E+02   -0.84462E-05   -0.68533E-07    32   0.292E-03    0.386E-04
DAV:   9    -0.113404296734E+02   -0.39022E-05   -0.15932E-07    32   0.139E-03    0.156E-04
DAV:  10    -0.113404340185E+02   -0.43451E-05   -0.25015E-07    32   0.157E-03    0.136E-04
DAV:  11    -0.113404353693E+02   -0.13507E-05   -0.34667E-08    32   0.668E-04    0.639E-05
DAV:  12    -0.113404360031E+02   -0.63384E-06   -0.96334E-09    32   0.362E-04    0.552E-05
DAV:  13    -0.113404364029E+02   -0.39976E-06   -0.53479E-09    32   0.283E-04    0.232E-05
DAV:  14    -0.113404365238E+02   -0.12091E-06   -0.81876E-10    32   0.117E-04    0.128E-05
DAV:  15    -0.113404365971E+02   -0.73295E-07   -0.51648E-10    32   0.102E-04    0.584E-06
DAV:  16    -0.113404366072E+02   -0.10082E-07   -0.55600E-12    32   0.194E-05    0.389E-06
DAV:  17    -0.113404366182E+02   -0.11033E-07   -0.25473E-11    24   0.319E-05    0.182E-06
DAV:  18    -0.113404366196E+02   -0.13881E-08   -0.36060E-12    32   0.813E-06
   7 F= -.11340437E+02 E0= -.11340437E+02  d E =-.814994E-02
 trial-energy change:   -0.008150  1 .order   -0.008157   -0.010537   -0.005777
 step:   1.8933(harm=  1.8933)  dis= 0.02639  next Energy=   -11.343951 (dE=-0.117E-01)
 bond charge predicted
       N       E                     dE             d eps       ncg     rms          rms(c)
DAV:   1    -0.113436307898E+02   -0.31942E-02   -0.41262E-01    16   0.594E+00    0.183E-01
DAV:   2    -0.113435778790E+02    0.52911E-04   -0.26165E-03    24   0.374E-01    0.116E-01
DAV:   3    -0.113438612844E+02   -0.28341E-03   -0.17911E-04    32   0.101E-01    0.375E-02
DAV:   4    -0.113439282808E+02   -0.66996E-04   -0.23933E-05    32   0.405E-02    0.824E-03
DAV:   5    -0.113439379730E+02   -0.96922E-05   -0.60849E-06    32   0.139E-02    0.242E-03
DAV:   6    -0.113439460481E+02   -0.80751E-05   -0.54603E-07    32   0.413E-03    0.123E-03
DAV:   7    -0.113439583307E+02   -0.12283E-04   -0.91466E-07    24   0.390E-03    0.823E-04
DAV:   8    -0.113439697177E+02   -0.11387E-04   -0.96364E-07    32   0.346E-03    0.466E-04
DAV:   9    -0.113439749593E+02   -0.52416E-05   -0.23192E-07    32   0.164E-03    0.202E-04
DAV:  10    -0.113439811110E+02   -0.61517E-05   -0.42119E-07    32   0.204E-03    0.175E-04
DAV:  11    -0.113439826976E+02   -0.15866E-05   -0.39032E-08    32   0.713E-04    0.640E-05
DAV:  12    -0.113439836785E+02   -0.98088E-06   -0.20387E-08    32   0.510E-04    0.757E-05
DAV:  13    -0.113439841853E+02   -0.50687E-06   -0.75470E-09    32   0.336E-04    0.265E-05
DAV:  14    -0.113439843610E+02   -0.17570E-06   -0.15339E-09    32   0.155E-04    0.168E-05
DAV:  15    -0.113439844537E+02   -0.92666E-07   -0.76838E-10    32   0.121E-04    0.770E-06
DAV:  16    -0.113439844687E+02   -0.14969E-07   -0.14655E-11    32   0.259E-05    0.298E-06
DAV:  17    -0.113439844842E+02   -0.15490E-07   -0.36380E-11    24   0.383E-05    0.226E-06
DAV:  18    -0.113439844864E+02   -0.22659E-08   -0.50626E-12    32   0.119E-05
   8 F= -.11343984E+02 E0= -.11343984E+02  d E =-.116978E-01
 curvature:  -0.95 expect dE=-0.632E-03 dE for cont linesearch -0.835E-06
 trial: gam= 0.05549 g(F)=  0.667E-03 g(S)=  0.000E+00 ort = 0.104E-03 (trialstep = 0.106E+01)
 search vector abs. value=  0.716E-03
 bond charge predicted
       N       E                     dE             d eps       ncg     rms          rms(c)
DAV:   1    -0.113439385160E+02    0.45968E-04   -0.46334E-02    16   0.175E+00    0.876E-02
DAV:   2    -0.113438067855E+02    0.13173E-03   -0.71303E-04    24   0.166E-01    0.455E-02
DAV:   3    -0.113438147626E+02   -0.79771E-05   -0.21169E-04    32   0.692E-02    0.172E-02
DAV:   4    -0.113438191898E+02   -0.44272E-05   -0.19222E-05    32   0.215E-02    0.678E-03
DAV:   5    -0.113438221941E+02   -0.30043E-05   -0.14520E-06    32   0.755E-03    0.105E-03
DAV:   6    -0.113438242625E+02   -0.20684E-05   -0.31746E-07    32   0.309E-03    0.357E-04
DAV:   7    -0.113438252088E+02   -0.94632E-06   -0.42152E-08    24   0.985E-04    0.252E-04
DAV:   8    -0.113438271397E+02   -0.19309E-05   -0.15951E-07    16   0.131E-03    0.162E-04
DAV:   9    -0.113438279458E+02   -0.80607E-06   -0.56505E-08    24   0.816E-04    0.139E-04
DAV:  10    -0.113438286663E+02   -0.72056E-06   -0.45287E-08    32   0.602E-04    0.481E-05
DAV:  11    -0.113438291708E+02   -0.50449E-06   -0.20616E-08    32   0.402E-04    0.504E-05
DAV:  12    -0.113438294477E+02   -0.27685E-06   -0.74503E-09    32   0.276E-04    0.410E-05
DAV:  13    -0.113438295136E+02   -0.65897E-07   -0.96957E-10    32   0.128E-04    0.166E-05
DAV:  14    -0.113438295715E+02   -0.57870E-07   -0.50393E-10    32   0.917E-05    0.475E-06
DAV:  15    -0.113438295869E+02   -0.15496E-07   -0.25420E-11    32   0.272E-05    0.219E-06
DAV:  16    -0.113438295995E+02   -0.12585E-07   -0.23945E-11    32   0.322E-05    0.207E-06
DAV:  17    -0.113438296029E+02   -0.33450E-08   -0.70877E-12    24   0.149E-05
   9 F= -.11343830E+02 E0= -.11343830E+02  d E =0.154884E-03
 trial-energy change:    0.000155  1 .order    0.000150   -0.000715    0.001014
 step:   0.4348(harm=  0.4393)  dis= 0.00141  next Energy=   -11.344130 (dE=-0.146E-03)
 bond charge predicted
       N       E                     dE             d eps       ncg     rms          rms(c)
DAV:   1    -0.113441671806E+02   -0.33758E-03   -0.16140E-02    16   0.103E+00    0.515E-02
DAV:   2    -0.113441215634E+02    0.45617E-04   -0.25089E-04    16   0.996E-02    0.270E-02
DAV:   3    -0.113441268594E+02   -0.52960E-05   -0.10112E-04    32   0.486E-02    0.113E-02
DAV:   4    -0.113441263430E+02    0.51637E-06   -0.86571E-06    32   0.140E-02    0.520E-03
DAV:   5    -0.113441273048E+02   -0.96179E-06   -0.42845E-07    32   0.538E-03    0.579E-04
DAV:   6    -0.113441275672E+02   -0.26240E-06   -0.10028E-07    32   0.199E-03    0.345E-04
DAV:   7    -0.113441278394E+02   -0.27218E-06   -0.28213E-08    32   0.864E-04    0.194E-04
DAV:   8    -0.113441284358E+02   -0.59640E-06   -0.26181E-08    16   0.740E-04    0.166E-04
DAV:   9    -0.113441290574E+02   -0.62161E-06   -0.41694E-08    24   0.698E-04    0.949E-05
DAV:  10    -0.113441296824E+02   -0.62493E-06   -0.20555E-08    24   0.372E-04    0.282E-05
DAV:  11    -0.113441299586E+02   -0.27629E-06   -0.52501E-09    32   0.210E-04    0.349E-05
DAV:  12    -0.113441301782E+02   -0.21959E-06   -0.53127E-09    32   0.211E-04    0.120E-05
DAV:  13    -0.113441302333E+02   -0.55060E-07   -0.41432E-10    32   0.679E-05    0.479E-06
DAV:  14    -0.113441302616E+02   -0.28353E-07   -0.16680E-10    32   0.501E-05    0.310E-06
DAV:  15    -0.113441302747E+02   -0.13054E-07   -0.33484E-11    32   0.309E-05    0.107E-06
DAV:  16    -0.113441302775E+02   -0.27959E-08   -0.36593E-12    24   0.115E-05
  10 F= -.11344130E+02 E0= -.11344130E+02  d E =-.145791E-03
 curvature:  -0.23 expect dE=-0.135E-06 dE for cont linesearch -0.791E-10
 trial: gam= 0.00695 g(F)=  0.578E-06 g(S)=  0.000E+00 ort = 0.492E-06 (trialstep = 0.937E+00)
 search vector abs. value=  0.620E-06
 reached required accuracy - stopping structural energy minimisation
Running "mpirun -np 96 vasp"
