<?xml version="1.0" encoding="ISO-8859-1"?>
<modeling>
 <generator>
  <i name="program" type="string">vasp </i>
  <i name="version" type="string">5.4.1  </i>
  <i name="subversion" type="string">05Feb16 (build Feb 08 2018 09:21:51) complex                          parallel </i>
  <i name="platform" type="string">LinuxIFC </i>
  <i name="date" type="string">2019 11 13 </i>
  <i name="time" type="string">13:51:00 </i>
 </generator>
 <incar>
  <i type="string" name="PREC">normal</i>
  <i type="int" name="IBRION">     2</i>
  <i name="EDIFF">      0.00000001</i>
  <i name="EDIFFG">     -0.01000000</i>
  <i type="int" name="NSW">   500</i>
  <i name="ENCUT">    400.00000000</i>
  <i type="int" name="ISMEAR">     0</i>
  <i name="SIGMA">      0.01000000</i>
  <i type="logical" name="LWAVE"> F  </i>
  <i type="logical" name="LCHARG"> F  </i>
  <v type="int" name="KPOINT_BSE">    -1     0     0     0</v>
 </incar>
 <kpoints>
  <generation param="Monkhorst-Pack">
   <v type="int" name="divisions">       1        1        1 </v>
   <v name="usershift">      0.00000000       0.00000000       0.00000000 </v>
   <v name="genvec1">      1.00000000       0.00000000       0.00000000 </v>
   <v name="genvec2">      0.00000000       1.00000000       0.00000000 </v>
   <v name="genvec3">      0.00000000       0.00000000       1.00000000 </v>
   <v name="shift">      0.00000000       0.00000000       0.00000000 </v>
  </generation>
  <varray name="kpointlist" >
   <v>       0.00000000       0.00000000       0.00000000 </v>
  </varray>
  <varray name="weights" >
   <v>       1.00000000 </v>
  </varray>
 </kpoints>
 <parameters>
  <separator name="general" >
   <i type="string" name="SYSTEM">unknown system</i>
   <i type="logical" name="LCOMPAT"> F  </i>
  </separator>
  <separator name="electronic" >
   <i type="string" name="PREC">normal</i>
   <i name="ENMAX">    400.00000000</i>
   <i name="ENAUG">    644.87300000</i>
   <i name="EDIFF">      0.00000001</i>
   <i type="int" name="IALGO">    38</i>
   <i type="int" name="IWAVPR">    11</i>
   <i type="int" name="NBANDS">     8</i>
   <i name="NELECT">      6.00000000</i>
   <i type="int" name="TURBO">     0</i>
   <i type="int" name="IRESTART">     0</i>
   <i type="int" name="NREBOOT">     0</i>
   <i type="int" name="NMIN">     0</i>
   <i name="EREF">      0.00000000</i>
   <separator name="electronic smearing" >
    <i type="int" name="ISMEAR">     0</i>
    <i name="SIGMA">      0.01000000</i>
    <i name="KSPACING">      0.50000000</i>
    <i type="logical" name="KGAMMA"> T  </i>
   </separator>
   <separator name="electronic projectors" >
    <i type="logical" name="LREAL"> F  </i>
    <v name="ROPT">      0.00000000      0.00000000</v>
    <i type="int" name="LMAXPAW">  -100</i>
    <i type="int" name="LMAXMIX">     2</i>
    <i type="logical" name="NLSPLINE"> F  </i>
   </separator>
   <separator name="electronic startup" >
    <i type="int" name="ISTART">     0</i>
    <i type="int" name="ICHARG">     2</i>
    <i type="int" name="INIWAV">     1</i>
   </separator>
   <separator name="electronic spin" >
    <i type="int" name="ISPIN">     1</i>
    <i type="logical" name="LNONCOLLINEAR"> F  </i>
    <v name="MAGMOM">      1.00000000      1.00000000      1.00000000</v>
    <i name="NUPDOWN">     -1.00000000</i>
    <i type="logical" name="LSORBIT"> F  </i>
    <v name="SAXIS">      0.00000000      0.00000000      1.00000000</v>
    <i type="logical" name="LSPIRAL"> F  </i>
    <v name="QSPIRAL">      0.00000000      0.00000000      0.00000000</v>
    <i type="logical" name="LZEROZ"> F  </i>
   </separator>
   <separator name="electronic exchange-correlation" >
    <i type="logical" name="LASPH"> F  </i>
    <i type="logical" name="LMETAGGA"> F  </i>
   </separator>
   <separator name="electronic convergence" >
    <i type="int" name="NELM">    60</i>
    <i type="int" name="NELMDL">    -5</i>
    <i type="int" name="NELMIN">     2</i>
    <i name="ENINI">    400.00000000</i>
    <separator name="electronic convergence detail" >
     <i type="logical" name="LDIAG"> T  </i>
     <i type="logical" name="LSUBROT"> F  </i>
     <i name="WEIMIN">      0.00100000</i>
     <i name="EBREAK">      0.00000000</i>
     <i name="DEPER">      0.30000000</i>
     <i type="int" name="NRMM">     4</i>
     <i name="TIME">      0.40000000</i>
    </separator>
   </separator>
   <separator name="electronic mixer" >
    <i name="AMIX">      0.40000000</i>
    <i name="BMIX">      1.00000000</i>
    <i name="AMIN">      0.10000000</i>
    <i name="AMIX_MAG">      1.60000000</i>
    <i name="BMIX_MAG">      1.00000000</i>
    <separator name="electronic mixer details" >
     <i type="int" name="IMIX">     4</i>
     <i type="logical" name="MIXFIRST"> F  </i>
     <i type="int" name="MAXMIX">   -45</i>
     <i name="WC">    100.00000000</i>
     <i type="int" name="INIMIX">     1</i>
     <i type="int" name="MIXPRE">     1</i>
     <i type="int" name="MREMOVE">     5</i>
    </separator>
   </separator>
   <separator name="electronic dipolcorrection" >
    <i type="logical" name="LDIPOL"> F  </i>
    <i type="logical" name="LMONO"> F  </i>
    <i type="int" name="IDIPOL">     0</i>
    <i name="EPSILON">      1.00000000</i>
    <v name="DIPOL">   -100.00000000   -100.00000000   -100.00000000</v>
    <i name="EFIELD">      0.00000000</i>
   </separator>
  </separator>
  <separator name="grids" >
   <i type="int" name="NGX">    80</i>
   <i type="int" name="NGY">    80</i>
   <i type="int" name="NGZ">    80</i>
   <i type="int" name="NGXF">   160</i>
   <i type="int" name="NGYF">   160</i>
   <i type="int" name="NGZF">   160</i>
   <i type="logical" name="ADDGRID"> F  </i>
  </separator>
  <separator name="ionic" >
   <i type="int" name="NSW">   500</i>
   <i type="int" name="IBRION">     2</i>
   <i type="int" name="ISIF">     2</i>
   <i name="PSTRESS">      0.00000000</i>
   <i name="EDIFFG">     -0.01000000</i>
   <i type="int" name="NFREE">     1</i>
   <i name="POTIM">      0.50000000</i>
   <i name="SMASS">     -3.00000000</i>
   <i name="SCALEE">      1.00000000</i>
  </separator>
  <separator name="ionic md" >
   <i name="TEBEG">      0.00010000</i>
   <i name="TEEND">      0.00010000</i>
   <i type="int" name="NBLOCK">     1</i>
   <i type="int" name="KBLOCK">   500</i>
   <i type="int" name="NPACO">   256</i>
   <i name="APACO">     16.00000000</i>
  </separator>
  <separator name="symmetry" >
   <i type="int" name="ISYM">     2</i>
   <i name="SYMPREC">      0.00001000</i>
  </separator>
  <separator name="dos" >
   <i type="logical" name="LORBIT"> F  </i>
   <v name="RWIGS">     -1.00000000     -1.00000000</v>
   <i type="int" name="NEDOS">   301</i>
   <i name="EMIN">     10.00000000</i>
   <i name="EMAX">    -10.00000000</i>
   <i name="EFERMI">      0.00000000</i>
  </separator>
  <separator name="writing" >
   <i type="int" name="NWRITE">     2</i>
   <i type="logical" name="LWAVE"> F  </i>
   <i type="logical" name="LCHARG"> F  </i>
   <i type="logical" name="LPARD"> F  </i>
   <i type="logical" name="LVTOT"> F  </i>
   <i type="logical" name="LVHAR"> F  </i>
   <i type="logical" name="LELF"> F  </i>
   <i type="logical" name="LOPTICS"> F  </i>
   <v name="STM">      0.00000000      0.00000000      0.00000000      0.00000000      0.00000000      0.00000000      0.00000000</v>
  </separator>
  <separator name="performance" >
   <i type="int" name="NPAR">     2</i>
   <i type="int" name="NSIM">     4</i>
   <i type="int" name="NBLK">    -1</i>
   <i type="logical" name="LPLANE"> T  </i>
   <i type="logical" name="LSCALAPACK"> F  </i>
   <i type="logical" name="LSCAAWARE"> F  </i>
   <i type="logical" name="LSCALU"> F  </i>
   <i type="logical" name="LASYNC"> F  </i>
   <i type="logical" name="LORBITALREAL"> F  </i>
  </separator>
  <separator name="miscellaneous" >
   <i type="int" name="IDIOT">     3</i>
   <i type="logical" name="LMUSIC"> F  </i>
   <v name="POMASS">      1.00000000     12.01100000</v>
   <v name="DARWINR">      0.00000000      0.00000000</v>
   <v name="DARWINV">      1.00000000      1.00000000</v>
   <i type="logical" name="LCORR"> T  </i>
  </separator>
  <i type="logical" name="GGA_COMPAT"> T  </i>
  <i type="logical" name="LBERRY"> F  </i>
  <i type="int" name="ICORELEVEL">     0</i>
  <i type="logical" name="LDAU"> F  </i>
  <i type="int" name="I_CONSTRAINED_M">     0</i>
  <separator name="electronic exchange-correlation" >
   <i type="string" name="GGA">--</i>
   <i type="int" name="VOSKOWN">     0</i>
   <i type="logical" name="LHFCALC"> F  </i>
   <i type="string" name="PRECFOCK"></i>
   <i type="logical" name="LSYMGRAD"> F  </i>
   <i type="logical" name="LHFONE"> F  </i>
   <i type="logical" name="LRHFCALC"> F  </i>
   <i type="logical" name="LTHOMAS"> F  </i>
   <i type="logical" name="LMODELHF"> F  </i>
   <i name="ENCUT4O">     -1.00000000</i>
   <i type="int" name="EXXOEP">     0</i>
   <i type="int" name="FOURORBIT">     0</i>
   <i name="AEXX">      0.00000000</i>
   <i name="HFALPHA">      0.00000000</i>
   <i name="MCALPHA">      0.00000000</i>
   <i name="ALDAX">      1.00000000</i>
   <i name="AGGAX">      1.00000000</i>
   <i name="ALDAC">      1.00000000</i>
   <i name="AGGAC">      1.00000000</i>
   <i type="int" name="NKREDX">     1</i>
   <i type="int" name="NKREDY">     1</i>
   <i type="int" name="NKREDZ">     1</i>
   <i type="logical" name="SHIFTRED"> F  </i>
   <i type="logical" name="ODDONLY"> F  </i>
   <i type="logical" name="EVENONLY"> F  </i>
   <i type="int" name="LMAXFOCK">     0</i>
   <i type="int" name="NMAXFOCKAE">     0</i>
   <i type="logical" name="LFOCKAEDFT"> F  </i>
   <i name="HFSCREEN">      0.00000000</i>
   <i name="HFSCREENC">      0.00000000</i>
   <i type="int" name="NBANDSGWLOW">     0</i>
  </separator>
  <separator name="vdW DFT" >
   <i type="logical" name="LUSE_VDW"> F  </i>
   <i name="Zab_VDW">     -0.84910000</i>
   <i name="PARAM1">      0.12340000</i>
   <i name="PARAM2">      1.00000000</i>
   <i name="PARAM3">      0.00000000</i>
  </separator>
  <separator name="model GW" >
   <i type="int" name="MODEL_GW">     0</i>
   <i name="MODEL_EPS0">    819.20000000</i>
   <i name="MODEL_ALPHA">      1.00000000</i>
  </separator>
  <separator name="linear response parameters" >
   <i type="logical" name="LEPSILON"> F  </i>
   <i type="logical" name="LRPA"> F  </i>
   <i type="logical" name="LNABLA"> F  </i>
   <i type="logical" name="LVEL"> F  </i>
   <i type="int" name="KINTER">     0</i>
   <i name="CSHIFT">      0.10000000</i>
   <i name="OMEGAMAX">     -1.00000000</i>
   <i name="DEG_THRESHOLD">      0.00200000</i>
  </separator>
  <separator name="orbital magnetization" >
   <i type="logical" name="NUCIND"> F  </i>
   <v name="MAGPOS">      0.00000000      0.00000000      0.00000000</v>
   <i type="logical" name="LNICSALL"> T  </i>
   <i type="logical" name="ORBITALMAG"> F  </i>
   <i type="logical" name="LMAGBLOCH"> F  </i>
   <i type="logical" name="LCHIMAG"> F  </i>
   <i type="logical" name="LGAUGE"> T  </i>
   <i type="int" name="MAGATOM">     0</i>
   <v name="MAGDIPOL">      0.00000000      0.00000000      0.00000000</v>
   <v name="AVECCONST">      0.00000000      0.00000000      0.00000000</v>
  </separator>
  <separator name="response functions" >
   <i type="logical" name="LADDER"> F  </i>
   <i type="logical" name="LFXC"> F  </i>
   <i type="logical" name="LHARTREE"> T  </i>
   <i type="int" name="IBSE">     0</i>
   <v type="int" name="KPOINT">    -1     0     0     0</v>
   <i type="logical" name="LTCTE"> F  </i>
   <i type="logical" name="LTETE"> F  </i>
   <i type="logical" name="LTRIPLET"> F  </i>
   <i type="logical" name="LFXCEPS"> F  </i>
   <i type="logical" name="LFXHEG"> F  </i>
   <i type="int" name="NATURALO">     0</i>
   <i type="logical" name="L2ORDER"> F  </i>
   <i type="logical" name="LUSEW"> F  </i>
   <i name="ENCUTGW">     -2.00000000</i>
   <i name="ENCUTGWSOFT">     -2.00000000</i>
   <i name="ENCUTLF">     -1.00000000</i>
   <i type="int" name="LMAXMP2">    -1</i>
   <i name="SCISSOR">      0.00000000</i>
   <i type="int" name="NOMEGA">     0</i>
   <i type="int" name="NOMEGAR">     0</i>
   <i type="int" name="NBANDSGW">    -1</i>
   <i type="int" name="NBANDSO">    -1</i>
   <i type="int" name="NBANDSV">    -1</i>
   <i type="int" name="NELM">     1</i>
   <i type="int" name="NELMHF">     1</i>
   <i type="int" name="DIM">     3</i>
   <i type="int" name="ANTIRES">     0</i>
   <i name="OMEGAMAX">    -30.00000000</i>
   <i name="OMEGAMIN">    -30.00000000</i>
   <i name="OMEGATL">   -200.00000000</i>
   <i type="int" name="OMEGAGRID">     0</i>
   <i name="CSHIFT">     -0.10000000</i>
   <i type="logical" name="SELFENERGY"> F  </i>
   <i type="logical" name="LSPECTRAL"> F  </i>
   <i type="logical" name="LSPECTRALGW"> F  </i>
   <i type="logical" name="LSINGLES"> F  </i>
   <i type="logical" name="LFERMIGW"> F  </i>
   <i type="logical" name="ODDONLYGW"> F  </i>
   <i type="logical" name="EVENONLYGW"> F  </i>
   <i type="int" name="NKREDLFX">     1</i>
   <i type="int" name="NKREDLFY">     1</i>
   <i type="int" name="NKREDLFZ">     1</i>
   <i type="int" name="MAXMEM">  1800</i>
   <i type="int" name="TELESCOPE">     0</i>
   <i type="int" name="TAUPAR">     1</i>
   <i type="int" name="OMEGAPAR">    -1</i>
   <i name="LAMBDA">      1.00000000</i>
  </separator>
  <separator name="External order field" >
   <i name="OFIELD_KAPPA">      0.00000000</i>
   <v name="OFIELD_K">      0.00000000      0.00000000      0.00000000</v>
   <i name="OFIELD_Q6_NEAR">      0.00000000</i>
   <i name="OFIELD_Q6_FAR">      0.00000000</i>
   <i name="OFIELD_A">      0.00000000</i>
  </separator>
 </parameters>
 <atominfo>
  <atoms>       3 </atoms>
  <types>       2 </types>
  <array name="atoms" >
   <dimension dim="1">ion</dimension>
   <field type="string">element</field>
   <field type="int">atomtype</field>
   <set>
    <rc><c>H </c><c>   1</c></rc>
    <rc><c>H </c><c>   1</c></rc>
    <rc><c>C </c><c>   2</c></rc>
   </set>
  </array>
  <array name="atomtypes" >
   <dimension dim="1">type</dimension>
   <field type="int">atomspertype</field>
   <field type="string">element</field>
   <field>mass</field>
   <field>valence</field>
   <field type="string">pseudopotential</field>
   <set>
    <rc><c>   2</c><c>H </c><c>      1.00000000</c><c>      1.00000000</c><c>  PAW_PBE H 15Jun2001                   </c></rc>
    <rc><c>   1</c><c>C </c><c>     12.01100000</c><c>      4.00000000</c><c>  PAW_PBE C 08Apr2002                   </c></rc>
   </set>
  </array>
 </atominfo>
 <structure name="initialpos" >
  <crystal>
   <varray name="basis" >
    <v>      16.00000000       0.00000000       0.00000000 </v>
    <v>       0.00000000      16.00000000       0.00000000 </v>
    <v>       0.00000000       0.00000000      16.00000000 </v>
   </varray>
   <i name="volume">   4096.00000000 </i>
   <varray name="rec_basis" >
    <v>       0.06250000       0.00000000       0.00000000 </v>
    <v>       0.00000000       0.06250000       0.00000000 </v>
    <v>       0.00000000       0.00000000       0.06250000 </v>
   </varray>
  </crystal>
  <varray name="positions" >
   <v>       0.51862754       0.45201832       0.50000000 </v>
   <v>       0.51862754       0.54798168       0.50000000 </v>
   <v>       0.48137246       0.50000000       0.50000000 </v>
  </varray>
 </structure>
 <calculation>
  <scstep>
   <time name="dav">    0.17    0.17</time>
   <time name="total">    0.75    0.76</time>
   <energy>
    <i name="alphaZ">      0.03722024 </i>
    <i name="ewald">     82.01097072 </i>
    <i name="hartreedc">   -190.73977345 </i>
    <i name="XCdc">     16.59047161 </i>
    <i name="pawpsdc">    112.79010125 </i>
    <i name="pawaedc">   -113.37726263 </i>
    <i name="eentropy">     -0.00000000 </i>
    <i name="bandstr">    -50.90653523 </i>
    <i name="atom">    172.08448920 </i>
    <i name="e_fr_energy">     28.48968171 </i>
    <i name="e_wo_entrp">     28.48968171 </i>
    <i name="e_0_energy">     28.48968171 </i>
   </energy>
  </scstep>
  <scstep>
   <time name="dav">    0.15    0.15</time>
   <time name="total">    0.16    0.16</time>
   <energy>
    <i name="e_fr_energy">     -6.41026459 </i>
    <i name="e_wo_entrp">     -6.41026459 </i>
    <i name="e_0_energy">     -6.41026459 </i>
   </energy>
  </scstep>
  <scstep>
   <time name="dav">    0.19    0.19</time>
   <time name="total">    0.19    0.20</time>
   <energy>
    <i name="e_fr_energy">    -12.58248253 </i>
    <i name="e_wo_entrp">    -12.58248253 </i>
    <i name="e_0_energy">    -12.58248253 </i>
   </energy>
  </scstep>
  <scstep>
   <time name="dav">    0.09    0.10</time>
   <time name="total">    0.10    0.11</time>
   <energy>
    <i name="e_fr_energy">    -12.63699994 </i>
    <i name="e_wo_entrp">    -12.63699994 </i>
    <i name="e_0_energy">    -12.63699994 </i>
   </energy>
  </scstep>
  <scstep>
   <time name="dav">    0.11    0.11</time>
   <time name="total">    0.39    0.39</time>
   <energy>
    <i name="e_fr_energy">    -12.63778336 </i>
    <i name="e_wo_entrp">    -12.63778336 </i>
    <i name="e_0_energy">    -12.63778336 </i>
   </energy>
  </scstep>
  <scstep>
   <time name="dav">    0.24    0.25</time>
   <time name="total">    1.06    1.07</time>
   <energy>
    <i name="e_fr_energy">    -10.99715516 </i>
    <i name="e_wo_entrp">    -10.99715516 </i>
    <i name="e_0_energy">    -10.99715516 </i>
   </energy>
  </scstep>
  <scstep>
   <time name="dav">    0.14    0.14</time>
   <time name="total">    0.91    0.92</time>
   <energy>
    <i name="e_fr_energy">    -10.49593592 </i>
    <i name="e_wo_entrp">    -10.49593592 </i>
    <i name="e_0_energy">    -10.49593592 </i>
   </energy>
  </scstep>
  <scstep>
   <time name="dav">    0.12    0.12</time>
   <time name="total">    0.88    0.88</time>
   <energy>
    <i name="e_fr_energy">    -10.47687415 </i>
    <i name="e_wo_entrp">    -10.47687415 </i>
    <i name="e_0_energy">    -10.47687415 </i>
   </energy>
  </scstep>
  <scstep>
   <time name="dav">    0.10    0.10</time>
   <time name="total">    0.86    0.87</time>
   <energy>
    <i name="e_fr_energy">    -10.47797026 </i>
    <i name="e_wo_entrp">    -10.47797026 </i>
    <i name="e_0_energy">    -10.47797026 </i>
   </energy>
  </scstep>
  <scstep>
   <time name="dav">    0.09    0.09</time>
   <time name="total">    0.83    0.84</time>
   <energy>
    <i name="e_fr_energy">    -10.48460171 </i>
    <i name="e_wo_entrp">    -10.48460171 </i>
    <i name="e_0_energy">    -10.48460171 </i>
   </energy>
  </scstep>
  <scstep>
   <time name="dav">    0.09    0.09</time>
   <time name="total">    0.84    0.85</time>
   <energy>
    <i name="e_fr_energy">    -10.48885027 </i>
    <i name="e_wo_entrp">    -10.48885027 </i>
    <i name="e_0_energy">    -10.48885027 </i>
   </energy>
  </scstep>
  <scstep>
   <time name="dav">    0.09    0.09</time>
   <time name="total">    0.85    0.86</time>
   <energy>
    <i name="e_fr_energy">    -10.49293269 </i>
    <i name="e_wo_entrp">    -10.49293269 </i>
    <i name="e_0_energy">    -10.49293269 </i>
   </energy>
  </scstep>
  <scstep>
   <time name="dav">    0.12    0.12</time>
   <time name="total">    0.86    0.86</time>
   <energy>
    <i name="e_fr_energy">    -10.49491989 </i>
    <i name="e_wo_entrp">    -10.49491989 </i>
    <i name="e_0_energy">    -10.49491989 </i>
   </energy>
  </scstep>
  <scstep>
   <time name="dav">    0.15    0.15</time>
   <time name="total">    0.90    0.91</time>
   <energy>
    <i name="e_fr_energy">    -10.49589807 </i>
    <i name="e_wo_entrp">    -10.49589807 </i>
    <i name="e_0_energy">    -10.49589807 </i>
   </energy>
  </scstep>
  <scstep>
   <time name="dav">    0.09    0.09</time>
   <time name="total">    0.84    0.85</time>
   <energy>
    <i name="e_fr_energy">    -10.49667622 </i>
    <i name="e_wo_entrp">    -10.49667622 </i>
    <i name="e_0_energy">    -10.49667622 </i>
   </energy>
  </scstep>
  <scstep>
   <time name="dav">    0.13    0.13</time>
   <time name="total">    0.93    0.93</time>
   <energy>
    <i name="e_fr_energy">    -10.49699169 </i>
    <i name="e_wo_entrp">    -10.49699169 </i>
    <i name="e_0_energy">    -10.49699169 </i>
   </energy>
  </scstep>
  <scstep>
   <time name="dav">    0.16    0.16</time>
   <time name="total">    0.89    0.89</time>
   <energy>
    <i name="e_fr_energy">    -10.49711280 </i>
    <i name="e_wo_entrp">    -10.49711280 </i>
    <i name="e_0_energy">    -10.49711280 </i>
   </energy>
  </scstep>
  <scstep>
   <time name="dav">    0.15    0.15</time>
   <time name="total">    0.89    0.89</time>
   <energy>
    <i name="e_fr_energy">    -10.49712826 </i>
    <i name="e_wo_entrp">    -10.49712826 </i>
    <i name="e_0_energy">    -10.49712826 </i>
   </energy>
  </scstep>
  <scstep>
   <time name="dav">    0.12    0.12</time>
   <time name="total">    0.85    0.86</time>
   <energy>
    <i name="e_fr_energy">    -10.49715180 </i>
    <i name="e_wo_entrp">    -10.49715180 </i>
    <i name="e_0_energy">    -10.49715180 </i>
   </energy>
  </scstep>
  <scstep>
   <time name="dav">    0.15    0.16</time>
   <time name="total">    0.89    0.89</time>
   <energy>
    <i name="e_fr_energy">    -10.49715606 </i>
    <i name="e_wo_entrp">    -10.49715606 </i>
    <i name="e_0_energy">    -10.49715606 </i>
   </energy>
  </scstep>
  <scstep>
   <time name="dav">    0.10    0.10</time>
   <time name="total">    0.83    0.84</time>
   <energy>
    <i name="e_fr_energy">    -10.49716055 </i>
    <i name="e_wo_entrp">    -10.49716055 </i>
    <i name="e_0_energy">    -10.49716055 </i>
   </energy>
  </scstep>
  <scstep>
   <time name="dav">    0.15    0.15</time>
   <time name="total">    0.89    0.89</time>
   <energy>
    <i name="e_fr_energy">    -10.49716140 </i>
    <i name="e_wo_entrp">    -10.49716140 </i>
    <i name="e_0_energy">    -10.49716140 </i>
   </energy>
  </scstep>
  <scstep>
   <time name="dav">    0.12    0.12</time>
   <time name="total">    0.87    0.87</time>
   <energy>
    <i name="e_fr_energy">    -10.49716210 </i>
    <i name="e_wo_entrp">    -10.49716210 </i>
    <i name="e_0_energy">    -10.49716210 </i>
   </energy>
  </scstep>
  <scstep>
   <time name="dav">    0.15    0.15</time>
   <time name="total">    0.89    0.89</time>
   <energy>
    <i name="e_fr_energy">    -10.49716215 </i>
    <i name="e_wo_entrp">    -10.49716215 </i>
    <i name="e_0_energy">    -10.49716215 </i>
   </energy>
  </scstep>
  <scstep>
   <time name="dav">    0.09    0.09</time>
   <time name="total">    0.83    0.84</time>
   <energy>
    <i name="e_fr_energy">    -10.49716224 </i>
    <i name="e_wo_entrp">    -10.49716224 </i>
    <i name="e_0_energy">    -10.49716224 </i>
   </energy>
  </scstep>
  <scstep>
   <time name="dav">    0.15    0.15</time>
   <time name="total">    1.04    1.04</time>
   <energy>
    <i name="e_fr_energy">    -10.49716227 </i>
    <i name="e_wo_entrp">    -10.49716227 </i>
    <i name="e_0_energy">    -10.49716227 </i>
   </energy>
  </scstep>
  <scstep>
   <time name="dav">    0.09    0.09</time>
   <time name="total">    0.83    0.83</time>
   <energy>
    <i name="e_fr_energy">    -10.49716228 </i>
    <i name="e_wo_entrp">    -10.49716228 </i>
    <i name="e_0_energy">    -10.49716228 </i>
   </energy>
  </scstep>
  <scstep>
   <time name="dav">    0.15    0.15</time>
   <time name="total">    0.62    0.63</time>
   <energy>
    <i name="alphaZ">      0.03722024 </i>
    <i name="ewald">     82.01097072 </i>
    <i name="hartreedc">   -213.79925797 </i>
    <i name="XCdc">     18.53490538 </i>
    <i name="pawpsdc">    349.08297492 </i>
    <i name="pawaedc">   -349.82987762 </i>
    <i name="eentropy">     -0.00000000 </i>
    <i name="bandstr">    -68.61858716 </i>
    <i name="atom">    172.08448920 </i>
    <i name="e_fr_energy">    -10.49716228 </i>
    <i name="e_wo_entrp">    -10.49716228 </i>
    <i name="e_0_energy">    -10.49716228 </i>
   </energy>
  </scstep>
  <structure>
   <crystal>
    <varray name="basis" >
     <v>      16.00000000       0.00000000       0.00000000 </v>
     <v>       0.00000000      16.00000000       0.00000000 </v>
     <v>       0.00000000       0.00000000      16.00000000 </v>
    </varray>
    <i name="volume">   4096.00000000 </i>
    <varray name="rec_basis" >
     <v>       0.06250000       0.00000000       0.00000000 </v>
     <v>       0.00000000       0.06250000       0.00000000 </v>
     <v>       0.00000000       0.00000000       0.06250000 </v>
    </varray>
   </crystal>
   <varray name="positions" >
    <v>       0.51862754       0.45201832       0.50000000 </v>
    <v>       0.51862754       0.54798168       0.50000000 </v>
    <v>       0.48137246       0.50000000       0.50000000 </v>
   </varray>
  </structure>
  <varray name="forces" >
   <v>       3.82449567      -5.27524406       0.00000000 </v>
   <v>       3.82449567       5.27524406       0.00000000 </v>
   <v>      -7.64899135       0.00000000       0.00000000 </v>
  </varray>
  <varray name="stress" >
   <v>       1.62689142       0.00000000       0.00000000 </v>
   <v>       0.00000000       3.02274547       0.00000000 </v>
   <v>       0.00000000       0.00000000      -0.09875741 </v>
  </varray>
  <energy>
   <i name="e_fr_energy">    -10.49716228 </i>
   <i name="e_wo_entrp">    -10.49716228 </i>
   <i name="e_0_energy">     -0.00000000 </i>
  </energy>
  <time name="totalsc">   23.04   23.22</time>
 </calculation>
 <calculation>
  <scstep>
   <time name="dav">    0.09    0.09</time>
   <time name="total">    0.83    0.84</time>
   <energy>
    <i name="alphaZ">      0.03722024 </i>
    <i name="ewald">     36.13585216 </i>
    <i name="hartreedc">   -187.27649613 </i>
    <i name="XCdc">     17.26618149 </i>
    <i name="pawpsdc">    349.08294533 </i>
    <i name="pawaedc">   -349.82984799 </i>
    <i name="eentropy">     -0.00000000 </i>
    <i name="bandstr">    -47.14061409 </i>
    <i name="atom">    172.08448920 </i>
    <i name="e_fr_energy">     -9.64026980 </i>
    <i name="e_wo_entrp">     -9.64026980 </i>
    <i name="e_0_energy">     -9.64026980 </i>
   </energy>
  </scstep>
  <scstep>
   <time name="dav">    0.12    0.12</time>
   <time name="total">    0.87    0.87</time>
   <energy>
    <i name="e_fr_energy">     -8.85284173 </i>
    <i name="e_wo_entrp">     -8.85284173 </i>
    <i name="e_0_energy">     -8.85284173 </i>
   </energy>
  </scstep>
  <scstep>
   <time name="dav">    0.15    0.15</time>
   <time name="total">    1.07    1.08</time>
   <energy>
    <i name="e_fr_energy">     -8.94294036 </i>
    <i name="e_wo_entrp">     -8.94294036 </i>
    <i name="e_0_energy">     -8.94294036 </i>
   </energy>
  </scstep>
  <scstep>
   <time name="dav">    0.12    0.12</time>
   <time name="total">    0.93    0.93</time>
   <energy>
    <i name="e_fr_energy">     -9.06543669 </i>
    <i name="e_wo_entrp">     -9.06543669 </i>
    <i name="e_0_energy">     -9.06543669 </i>
   </energy>
  </scstep>
  <scstep>
   <time name="dav">    0.15    0.15</time>
   <time name="total">    0.90    0.91</time>
   <energy>
    <i name="e_fr_energy">     -9.06261236 </i>
    <i name="e_wo_entrp">     -9.06261236 </i>
    <i name="e_0_energy">     -9.06261236 </i>
   </energy>
  </scstep>
  <scstep>
   <time name="dav">    0.12    0.12</time>
   <time name="total">    0.85    0.86</time>
   <energy>
    <i name="e_fr_energy">     -9.06402034 </i>
    <i name="e_wo_entrp">     -9.06402034 </i>
    <i name="e_0_energy">     -9.06402034 </i>
   </energy>
  </scstep>
  <scstep>
   <time name="dav">    0.09    0.09</time>
   <time name="total">    0.85    0.85</time>
   <energy>
    <i name="e_fr_energy">     -9.06560442 </i>
    <i name="e_wo_entrp">     -9.06560442 </i>
    <i name="e_0_energy">     -9.06560442 </i>
   </energy>
  </scstep>
  <scstep>
   <time name="dav">    0.09    0.09</time>
   <time name="total">    0.86    0.92</time>
   <energy>
    <i name="e_fr_energy">     -9.06657265 </i>
    <i name="e_wo_entrp">     -9.06657265 </i>
    <i name="e_0_energy">     -9.06657265 </i>
   </energy>
  </scstep>
  <scstep>
   <time name="dav">    0.09    0.09</time>
   <time name="total">    0.83    0.85</time>
   <energy>
    <i name="e_fr_energy">     -9.06759748 </i>
    <i name="e_wo_entrp">     -9.06759748 </i>
    <i name="e_0_energy">     -9.06759748 </i>
   </energy>
  </scstep>
  <scstep>
   <time name="dav">    0.09    0.09</time>
   <time name="total">    0.83    0.83</time>
   <energy>
    <i name="e_fr_energy">     -9.06801862 </i>
    <i name="e_wo_entrp">     -9.06801862 </i>
    <i name="e_0_energy">     -9.06801862 </i>
   </energy>
  </scstep>
  <scstep>
   <time name="dav">    0.12    0.12</time>
   <time name="total">    0.85    0.86</time>
   <energy>
    <i name="e_fr_energy">     -9.06851023 </i>
    <i name="e_wo_entrp">     -9.06851023 </i>
    <i name="e_0_energy">     -9.06851023 </i>
   </energy>
  </scstep>
  <scstep>
   <time name="dav">    0.12    0.12</time>
   <time name="total">    0.86    0.87</time>
   <energy>
    <i name="e_fr_energy">     -9.06867552 </i>
    <i name="e_wo_entrp">     -9.06867552 </i>
    <i name="e_0_energy">     -9.06867552 </i>
   </energy>
  </scstep>
  <scstep>
   <time name="dav">    0.15    0.15</time>
   <time name="total">    0.89    0.90</time>
   <energy>
    <i name="e_fr_energy">     -9.06882388 </i>
    <i name="e_wo_entrp">     -9.06882388 </i>
    <i name="e_0_energy">     -9.06882388 </i>
   </energy>
  </scstep>
  <scstep>
   <time name="dav">    0.15    0.15</time>
   <time name="total">    0.89    0.89</time>
   <energy>
    <i name="e_fr_energy">     -9.06886888 </i>
    <i name="e_wo_entrp">     -9.06886888 </i>
    <i name="e_0_energy">     -9.06886888 </i>
   </energy>
  </scstep>
  <scstep>
   <time name="dav">    0.15    0.15</time>
   <time name="total">    0.89    0.89</time>
   <energy>
    <i name="e_fr_energy">     -9.06887783 </i>
    <i name="e_wo_entrp">     -9.06887783 </i>
    <i name="e_0_energy">     -9.06887783 </i>
   </energy>
  </scstep>
  <scstep>
   <time name="dav">    0.15    0.15</time>
   <time name="total">    0.89    0.90</time>
   <energy>
    <i name="e_fr_energy">     -9.06888796 </i>
    <i name="e_wo_entrp">     -9.06888796 </i>
    <i name="e_0_energy">     -9.06888796 </i>
   </energy>
  </scstep>
  <scstep>
   <time name="dav">    0.09    0.09</time>
   <time name="total">    0.84    0.84</time>
   <energy>
    <i name="e_fr_energy">     -9.06888864 </i>
    <i name="e_wo_entrp">     -9.06888864 </i>
    <i name="e_0_energy">     -9.06888864 </i>
   </energy>
  </scstep>
  <scstep>
   <time name="dav">    0.12    0.12</time>
   <time name="total">    0.86    0.87</time>
   <energy>
    <i name="e_fr_energy">     -9.06889028 </i>
    <i name="e_wo_entrp">     -9.06889028 </i>
    <i name="e_0_energy">     -9.06889028 </i>
   </energy>
  </scstep>
  <scstep>
   <time name="dav">    0.09    0.09</time>
   <time name="total">    0.83    0.84</time>
   <energy>
    <i name="e_fr_energy">     -9.06889093 </i>
    <i name="e_wo_entrp">     -9.06889093 </i>
    <i name="e_0_energy">     -9.06889093 </i>
   </energy>
  </scstep>
  <scstep>
   <time name="dav">    0.12    0.12</time>
   <time name="total">    0.93    0.94</time>
   <energy>
    <i name="e_fr_energy">     -9.06889101 </i>
    <i name="e_wo_entrp">     -9.06889101 </i>
    <i name="e_0_energy">     -9.06889101 </i>
   </energy>
  </scstep>
  <scstep>
   <time name="dav">    0.09    0.09</time>
   <time name="total">    0.83    0.84</time>
   <energy>
    <i name="e_fr_energy">     -9.06889112 </i>
    <i name="e_wo_entrp">     -9.06889112 </i>
    <i name="e_0_energy">     -9.06889112 </i>
   </energy>
  </scstep>
  <scstep>
   <time name="dav">    0.15    0.15</time>
   <time name="total">    0.90    0.90</time>
   <energy>
    <i name="e_fr_energy">     -9.06889114 </i>
    <i name="e_wo_entrp">     -9.06889114 </i>
    <i name="e_0_energy">     -9.06889114 </i>
   </energy>
  </scstep>
  <scstep>
   <time name="dav">    0.12    0.12</time>
   <time name="total">    0.86    0.87</time>
   <energy>
    <i name="e_fr_energy">     -9.06889115 </i>
    <i name="e_wo_entrp">     -9.06889115 </i>
    <i name="e_0_energy">     -9.06889115 </i>
   </energy>
  </scstep>
  <scstep>
   <time name="dav">    0.15    0.15</time>
   <time name="total">    0.62    0.63</time>
   <energy>
    <i name="alphaZ">      0.03722024 </i>
    <i name="ewald">     36.13585216 </i>
    <i name="hartreedc">   -173.28566644 </i>
    <i name="XCdc">     16.03505259 </i>
    <i name="pawpsdc">    133.77046554 </i>
    <i name="pawaedc">   -134.31916226 </i>
    <i name="eentropy">     -0.00000000 </i>
    <i name="bandstr">    -59.52714217 </i>
    <i name="atom">    172.08448920 </i>
    <i name="e_fr_energy">     -9.06889116 </i>
    <i name="e_wo_entrp">     -9.06889116 </i>
    <i name="e_0_energy">     -9.06889116 </i>
   </energy>
  </scstep>
  <structure>
   <crystal>
    <varray name="basis" >
     <v>      16.00000000       0.00000000       0.00000000 </v>
     <v>       0.00000000      16.00000000       0.00000000 </v>
     <v>       0.00000000       0.00000000      16.00000000 </v>
    </varray>
    <i name="volume">   4096.00000000 </i>
    <varray name="rec_basis" >
     <v>       0.06250000       0.00000000       0.00000000 </v>
     <v>       0.00000000       0.06250000       0.00000000 </v>
     <v>       0.00000000       0.00000000       0.06250000 </v>
    </varray>
   </crystal>
   <varray name="positions" >
    <v>       0.53015903       0.43611259       0.50000000 </v>
    <v>       0.53015903       0.56388741       0.50000000 </v>
    <v>       0.45830948       0.50000000       0.50000000 </v>
   </varray>
  </structure>
  <varray name="forces" >
   <v>      -2.92055628       2.24172115       0.00000000 </v>
   <v>      -2.92055628      -2.24172115       0.00000000 </v>
   <v>       5.84111255       0.00000000       0.00000000 </v>
  </varray>
  <varray name="stress" >
   <v>      -2.74067275       0.00000000       0.00000000 </v>
   <v>       0.00000000      -1.90135565       0.00000000 </v>
   <v>       0.00000000       0.00000000      -0.06864051 </v>
  </varray>
  <energy>
   <i name="e_fr_energy">     -9.06889116 </i>
   <i name="e_wo_entrp">     -9.06889116 </i>
   <i name="e_0_energy">     -0.00000000 </i>
  </energy>
  <time name="totalsc">   22.17   22.45</time>
 </calculation>
 <calculation>
  <scstep>
   <time name="dav">    0.09    0.09</time>
   <time name="total">    0.84    0.85</time>
   <energy>
    <i name="alphaZ">      0.03722024 </i>
    <i name="ewald">     63.58306870 </i>
    <i name="hartreedc">   -190.08030257 </i>
    <i name="XCdc">     16.86300045 </i>
    <i name="pawpsdc">    133.77040185 </i>
    <i name="pawaedc">   -134.31909867 </i>
    <i name="eentropy">     -0.00000000 </i>
    <i name="bandstr">    -73.02077763 </i>
    <i name="atom">    172.08448920 </i>
    <i name="e_fr_energy">    -11.08199843 </i>
    <i name="e_wo_entrp">    -11.08199843 </i>
    <i name="e_0_energy">    -11.08199843 </i>
   </energy>
  </scstep>
  <scstep>
   <time name="dav">    0.15    0.15</time>
   <time name="total">    0.89    0.89</time>
   <energy>
    <i name="e_fr_energy">    -11.40332084 </i>
    <i name="e_wo_entrp">    -11.40332084 </i>
    <i name="e_0_energy">    -11.40332084 </i>
   </energy>
  </scstep>
  <scstep>
   <time name="dav">    0.12    0.12</time>
   <time name="total">    0.86    0.87</time>
   <energy>
    <i name="e_fr_energy">    -11.31174488 </i>
    <i name="e_wo_entrp">    -11.31174488 </i>
    <i name="e_0_energy">    -11.31174488 </i>
   </energy>
  </scstep>
  <scstep>
   <time name="dav">    0.09    0.09</time>
   <time name="total">    0.95    0.96</time>
   <energy>
    <i name="e_fr_energy">    -11.31287488 </i>
    <i name="e_wo_entrp">    -11.31287488 </i>
    <i name="e_0_energy">    -11.31287488 </i>
   </energy>
  </scstep>
  <scstep>
   <time name="dav">    0.12    0.12</time>
   <time name="total">    0.85    0.86</time>
   <energy>
    <i name="e_fr_energy">    -11.31762847 </i>
    <i name="e_wo_entrp">    -11.31762847 </i>
    <i name="e_0_energy">    -11.31762847 </i>
   </energy>
  </scstep>
  <scstep>
   <time name="dav">    0.09    0.09</time>
   <time name="total">    0.83    0.83</time>
   <energy>
    <i name="e_fr_energy">    -11.31934279 </i>
    <i name="e_wo_entrp">    -11.31934279 </i>
    <i name="e_0_energy">    -11.31934279 </i>
   </energy>
  </scstep>
  <scstep>
   <time name="dav">    0.10    0.10</time>
   <time name="total">    0.86    0.86</time>
   <energy>
    <i name="e_fr_energy">    -11.32067583 </i>
    <i name="e_wo_entrp">    -11.32067583 </i>
    <i name="e_0_energy">    -11.32067583 </i>
   </energy>
  </scstep>
  <scstep>
   <time name="dav">    0.12    0.13</time>
   <time name="total">    0.89    0.89</time>
   <energy>
    <i name="e_fr_energy">    -11.32210753 </i>
    <i name="e_wo_entrp">    -11.32210753 </i>
    <i name="e_0_energy">    -11.32210753 </i>
   </energy>
  </scstep>
  <scstep>
   <time name="dav">    0.09    0.09</time>
   <time name="total">    0.82    0.82</time>
   <energy>
    <i name="e_fr_energy">    -11.32348186 </i>
    <i name="e_wo_entrp">    -11.32348186 </i>
    <i name="e_0_energy">    -11.32348186 </i>
   </energy>
  </scstep>
  <scstep>
   <time name="dav">    0.12    0.12</time>
   <time name="total">    0.85    0.85</time>
   <energy>
    <i name="e_fr_energy">    -11.32398580 </i>
    <i name="e_wo_entrp">    -11.32398580 </i>
    <i name="e_0_energy">    -11.32398580 </i>
   </energy>
  </scstep>
  <scstep>
   <time name="dav">    0.12    0.12</time>
   <time name="total">    0.85    0.85</time>
   <energy>
    <i name="e_fr_energy">    -11.32424453 </i>
    <i name="e_wo_entrp">    -11.32424453 </i>
    <i name="e_0_energy">    -11.32424453 </i>
   </energy>
  </scstep>
  <scstep>
   <time name="dav">    0.15    0.15</time>
   <time name="total">    0.94    0.95</time>
   <energy>
    <i name="e_fr_energy">    -11.32435213 </i>
    <i name="e_wo_entrp">    -11.32435213 </i>
    <i name="e_0_energy">    -11.32435213 </i>
   </energy>
  </scstep>
  <scstep>
   <time name="dav">    0.15    0.15</time>
   <time name="total">    1.00    1.01</time>
   <energy>
    <i name="e_fr_energy">    -11.32439996 </i>
    <i name="e_wo_entrp">    -11.32439996 </i>
    <i name="e_0_energy">    -11.32439996 </i>
   </energy>
  </scstep>
  <scstep>
   <time name="dav">    0.15    0.15</time>
   <time name="total">    0.88    0.89</time>
   <energy>
    <i name="e_fr_energy">    -11.32441735 </i>
    <i name="e_wo_entrp">    -11.32441735 </i>
    <i name="e_0_energy">    -11.32441735 </i>
   </energy>
  </scstep>
  <scstep>
   <time name="dav">    0.15    0.15</time>
   <time name="total">    0.88    0.89</time>
   <energy>
    <i name="e_fr_energy">    -11.32442626 </i>
    <i name="e_wo_entrp">    -11.32442626 </i>
    <i name="e_0_energy">    -11.32442626 </i>
   </energy>
  </scstep>
  <scstep>
   <time name="dav">    0.12    0.12</time>
   <time name="total">    0.85    0.85</time>
   <energy>
    <i name="e_fr_energy">    -11.32442926 </i>
    <i name="e_wo_entrp">    -11.32442926 </i>
    <i name="e_0_energy">    -11.32442926 </i>
   </energy>
  </scstep>
  <scstep>
   <time name="dav">    0.12    0.12</time>
   <time name="total">    0.88    0.89</time>
   <energy>
    <i name="e_fr_energy">    -11.32443070 </i>
    <i name="e_wo_entrp">    -11.32443070 </i>
    <i name="e_0_energy">    -11.32443070 </i>
   </energy>
  </scstep>
  <scstep>
   <time name="dav">    0.12    0.12</time>
   <time name="total">    0.85    0.86</time>
   <energy>
    <i name="e_fr_energy">    -11.32443115 </i>
    <i name="e_wo_entrp">    -11.32443115 </i>
    <i name="e_0_energy">    -11.32443115 </i>
   </energy>
  </scstep>
  <scstep>
   <time name="dav">    0.09    0.09</time>
   <time name="total">    0.83    0.83</time>
   <energy>
    <i name="e_fr_energy">    -11.32443134 </i>
    <i name="e_wo_entrp">    -11.32443134 </i>
    <i name="e_0_energy">    -11.32443134 </i>
   </energy>
  </scstep>
  <scstep>
   <time name="dav">    0.12    0.12</time>
   <time name="total">    0.85    0.86</time>
   <energy>
    <i name="e_fr_energy">    -11.32443140 </i>
    <i name="e_wo_entrp">    -11.32443140 </i>
    <i name="e_0_energy">    -11.32443140 </i>
   </energy>
  </scstep>
  <scstep>
   <time name="dav">    0.15    0.15</time>
   <time name="total">    0.88    0.89</time>
   <energy>
    <i name="e_fr_energy">    -11.32443142 </i>
    <i name="e_wo_entrp">    -11.32443142 </i>
    <i name="e_0_energy">    -11.32443142 </i>
   </energy>
  </scstep>
  <scstep>
   <time name="dav">    0.09    0.09</time>
   <time name="total">    0.83    0.83</time>
   <energy>
    <i name="e_fr_energy">    -11.32443143 </i>
    <i name="e_wo_entrp">    -11.32443143 </i>
    <i name="e_0_energy">    -11.32443143 </i>
   </energy>
  </scstep>
  <scstep>
   <time name="dav">    0.15    0.15</time>
   <time name="total">    0.62    0.63</time>
   <energy>
    <i name="alphaZ">      0.03722024 </i>
    <i name="ewald">     63.58306870 </i>
    <i name="hartreedc">   -199.23005512 </i>
    <i name="XCdc">     17.59364980 </i>
    <i name="pawpsdc">    235.24173235 </i>
    <i name="pawaedc">   -235.88671924 </i>
    <i name="eentropy">     -0.00000000 </i>
    <i name="bandstr">    -64.74781737 </i>
    <i name="atom">    172.08448920 </i>
    <i name="e_fr_energy">    -11.32443144 </i>
    <i name="e_wo_entrp">    -11.32443144 </i>
    <i name="e_0_energy">    -11.32443144 </i>
   </energy>
  </scstep>
  <structure>
   <crystal>
    <varray name="basis" >
     <v>      16.00000000       0.00000000       0.00000000 </v>
     <v>       0.00000000      16.00000000       0.00000000 </v>
     <v>       0.00000000       0.00000000      16.00000000 </v>
    </varray>
    <i name="volume">   4096.00000000 </i>
    <varray name="rec_basis" >
     <v>       0.06250000       0.00000000       0.00000000 </v>
     <v>       0.00000000       0.06250000       0.00000000 </v>
     <v>       0.00000000       0.00000000       0.06250000 </v>
    </varray>
   </crystal>
   <varray name="positions" >
    <v>       0.52217068       0.44713116       0.50000000 </v>
    <v>       0.52217068       0.55286884       0.50000000 </v>
    <v>       0.47428617       0.50000000       0.50000000 </v>
   </varray>
  </structure>
  <varray name="forces" >
   <v>      -0.42586303       0.04704233       0.00000000 </v>
   <v>      -0.42586303      -0.04704233       0.00000000 </v>
   <v>       0.85172606       0.00000000       0.00000000 </v>
  </varray>
  <varray name="stress" >
   <v>      -0.36973583       0.00000000       0.00000000 </v>
   <v>       0.00000000      -0.13047317       0.00000000 </v>
   <v>       0.00000000       0.00000000      -0.08678766 </v>
  </varray>
  <energy>
   <i name="e_fr_energy">    -11.32443144 </i>
   <i name="e_wo_entrp">    -11.32443144 </i>
   <i name="e_0_energy">     -0.00000000 </i>
  </energy>
  <time name="totalsc">   21.14   21.34</time>
 </calculation>
 <calculation>
  <scstep>
   <time name="dav">    0.09    0.09</time>
   <time name="total">    0.82    0.83</time>
   <energy>
    <i name="alphaZ">      0.03722024 </i>
    <i name="ewald">     64.66069287 </i>
    <i name="hartreedc">   -199.77046758 </i>
    <i name="XCdc">     17.62311100 </i>
    <i name="pawpsdc">    235.24168879 </i>
    <i name="pawaedc">   -235.88667558 </i>
    <i name="eentropy">     -0.00000000 </i>
    <i name="bandstr">    -65.32178523 </i>
    <i name="atom">    172.08448920 </i>
    <i name="e_fr_energy">    -11.33172629 </i>
    <i name="e_wo_entrp">    -11.33172629 </i>
    <i name="e_0_energy">    -11.33172629 </i>
   </energy>
  </scstep>
  <scstep>
   <time name="dav">    0.12    0.12</time>
   <time name="total">    0.85    0.86</time>
   <energy>
    <i name="e_fr_energy">    -11.33122908 </i>
    <i name="e_wo_entrp">    -11.33122908 </i>
    <i name="e_0_energy">    -11.33122908 </i>
   </energy>
  </scstep>
  <scstep>
   <time name="dav">    0.18    0.18</time>
   <time name="total">    0.99    1.00</time>
   <energy>
    <i name="e_fr_energy">    -11.33128661 </i>
    <i name="e_wo_entrp">    -11.33128661 </i>
    <i name="e_0_energy">    -11.33128661 </i>
   </energy>
  </scstep>
  <scstep>
   <time name="dav">    0.15    0.15</time>
   <time name="total">    1.06    1.07</time>
   <energy>
    <i name="e_fr_energy">    -11.33131430 </i>
    <i name="e_wo_entrp">    -11.33131430 </i>
    <i name="e_0_energy">    -11.33131430 </i>
   </energy>
  </scstep>
  <scstep>
   <time name="dav">    0.15    0.15</time>
   <time name="total">    0.88    0.89</time>
   <energy>
    <i name="e_fr_energy">    -11.33131864 </i>
    <i name="e_wo_entrp">    -11.33131864 </i>
    <i name="e_0_energy">    -11.33131864 </i>
   </energy>
  </scstep>
  <scstep>
   <time name="dav">    0.15    0.15</time>
   <time name="total">    0.89    0.90</time>
   <energy>
    <i name="e_fr_energy">    -11.33132365 </i>
    <i name="e_wo_entrp">    -11.33132365 </i>
    <i name="e_0_energy">    -11.33132365 </i>
   </energy>
  </scstep>
  <scstep>
   <time name="dav">    0.09    0.09</time>
   <time name="total">    0.82    0.83</time>
   <energy>
    <i name="e_fr_energy">    -11.33132698 </i>
    <i name="e_wo_entrp">    -11.33132698 </i>
    <i name="e_0_energy">    -11.33132698 </i>
   </energy>
  </scstep>
  <scstep>
   <time name="dav">    0.12    0.12</time>
   <time name="total">    0.85    0.86</time>
   <energy>
    <i name="e_fr_energy">    -11.33133438 </i>
    <i name="e_wo_entrp">    -11.33133438 </i>
    <i name="e_0_energy">    -11.33133438 </i>
   </energy>
  </scstep>
  <scstep>
   <time name="dav">    0.14    0.14</time>
   <time name="total">    0.87    0.87</time>
   <energy>
    <i name="e_fr_energy">    -11.33133810 </i>
    <i name="e_wo_entrp">    -11.33133810 </i>
    <i name="e_0_energy">    -11.33133810 </i>
   </energy>
  </scstep>
  <scstep>
   <time name="dav">    0.15    0.15</time>
   <time name="total">    0.92    0.93</time>
   <energy>
    <i name="e_fr_energy">    -11.33134248 </i>
    <i name="e_wo_entrp">    -11.33134248 </i>
    <i name="e_0_energy">    -11.33134248 </i>
   </energy>
  </scstep>
  <scstep>
   <time name="dav">    0.15    0.15</time>
   <time name="total">    0.89    0.90</time>
   <energy>
    <i name="e_fr_energy">    -11.33134389 </i>
    <i name="e_wo_entrp">    -11.33134389 </i>
    <i name="e_0_energy">    -11.33134389 </i>
   </energy>
  </scstep>
  <scstep>
   <time name="dav">    0.15    0.15</time>
   <time name="total">    0.90    0.90</time>
   <energy>
    <i name="e_fr_energy">    -11.33134484 </i>
    <i name="e_wo_entrp">    -11.33134484 </i>
    <i name="e_0_energy">    -11.33134484 </i>
   </energy>
  </scstep>
  <scstep>
   <time name="dav">    0.16    0.16</time>
   <time name="total">    0.90    0.90</time>
   <energy>
    <i name="e_fr_energy">    -11.33134520 </i>
    <i name="e_wo_entrp">    -11.33134520 </i>
    <i name="e_0_energy">    -11.33134520 </i>
   </energy>
  </scstep>
  <scstep>
   <time name="dav">    0.15    0.15</time>
   <time name="total">    0.89    0.89</time>
   <energy>
    <i name="e_fr_energy">    -11.33134527 </i>
    <i name="e_wo_entrp">    -11.33134527 </i>
    <i name="e_0_energy">    -11.33134527 </i>
   </energy>
  </scstep>
  <scstep>
   <time name="dav">    0.15    0.15</time>
   <time name="total">    0.89    0.89</time>
   <energy>
    <i name="e_fr_energy">    -11.33134535 </i>
    <i name="e_wo_entrp">    -11.33134535 </i>
    <i name="e_0_energy">    -11.33134535 </i>
   </energy>
  </scstep>
  <scstep>
   <time name="dav">    0.12    0.12</time>
   <time name="total">    0.86    0.87</time>
   <energy>
    <i name="e_fr_energy">    -11.33134536 </i>
    <i name="e_wo_entrp">    -11.33134536 </i>
    <i name="e_0_energy">    -11.33134536 </i>
   </energy>
  </scstep>
  <scstep>
   <time name="dav">    0.12    0.12</time>
   <time name="total">    0.63    0.63</time>
   <energy>
    <i name="alphaZ">      0.03722024 </i>
    <i name="ewald">     64.66069287 </i>
    <i name="hartreedc">   -200.14113718 </i>
    <i name="XCdc">     17.65141315 </i>
    <i name="pawpsdc">    240.58886927 </i>
    <i name="pawaedc">   -241.23903744 </i>
    <i name="eentropy">     -0.00000000 </i>
    <i name="bandstr">    -64.97385547 </i>
    <i name="atom">    172.08448920 </i>
    <i name="e_fr_energy">    -11.33134537 </i>
    <i name="e_wo_entrp">    -11.33134537 </i>
    <i name="e_0_energy">    -11.33134537 </i>
   </energy>
  </scstep>
  <structure>
   <crystal>
    <varray name="basis" >
     <v>      16.00000000       0.00000000       0.00000000 </v>
     <v>       0.00000000      16.00000000       0.00000000 </v>
     <v>       0.00000000       0.00000000      16.00000000 </v>
    </varray>
    <i name="volume">   4096.00000000 </i>
    <varray name="rec_basis" >
     <v>       0.06250000       0.00000000       0.00000000 </v>
     <v>       0.00000000       0.06250000       0.00000000 </v>
     <v>       0.00000000       0.00000000       0.06250000 </v>
    </varray>
   </crystal>
   <varray name="positions" >
    <v>       0.52193394       0.44745770       0.50000000 </v>
    <v>       0.52193394       0.55254230       0.50000000 </v>
    <v>       0.47475965       0.50000000       0.50000000 </v>
   </varray>
  </structure>
  <varray name="forces" >
   <v>      -0.23322866      -0.16362871       0.00000000 </v>
   <v>      -0.23322866       0.16362871       0.00000000 </v>
   <v>       0.46645732       0.00000000       0.00000000 </v>
  </varray>
  <varray name="stress" >
   <v>      -0.25499681       0.00000000       0.00000000 </v>
   <v>       0.00000000       0.00551159       0.00000000 </v>
   <v>       0.00000000       0.00000000      -0.08778196 </v>
  </varray>
  <energy>
   <i name="e_fr_energy">    -11.33134537 </i>
   <i name="e_wo_entrp">    -11.33134537 </i>
   <i name="e_0_energy">     -0.00000000 </i>
  </energy>
  <time name="totalsc">   16.29   16.43</time>
 </calculation>
 <calculation>
  <scstep>
   <time name="dav">    0.09    0.09</time>
   <time name="total">    0.84    0.86</time>
   <energy>
    <i name="alphaZ">      0.03722024 </i>
    <i name="ewald">     65.24234890 </i>
    <i name="hartreedc">   -200.42983928 </i>
    <i name="XCdc">     17.66720876 </i>
    <i name="pawpsdc">    240.58887720 </i>
    <i name="pawaedc">   -241.23904535 </i>
    <i name="eentropy">     -0.00000000 </i>
    <i name="bandstr">    -65.28365282 </i>
    <i name="atom">    172.08448920 </i>
    <i name="e_fr_energy">    -11.33239315 </i>
    <i name="e_wo_entrp">    -11.33239315 </i>
    <i name="e_0_energy">    -11.33239315 </i>
   </energy>
  </scstep>
  <scstep>
   <time name="dav">    0.09    0.09</time>
   <time name="total">    0.83    0.84</time>
   <energy>
    <i name="e_fr_energy">    -11.33224508 </i>
    <i name="e_wo_entrp">    -11.33224508 </i>
    <i name="e_0_energy">    -11.33224508 </i>
   </energy>
  </scstep>
  <scstep>
   <time name="dav">    0.15    0.15</time>
   <time name="total">    0.89    0.90</time>
   <energy>
    <i name="e_fr_energy">    -11.33227228 </i>
    <i name="e_wo_entrp">    -11.33227228 </i>
    <i name="e_0_energy">    -11.33227228 </i>
   </energy>
  </scstep>
  <scstep>
   <time name="dav">    0.15    0.15</time>
   <time name="total">    1.15    1.15</time>
   <energy>
    <i name="e_fr_energy">    -11.33227348 </i>
    <i name="e_wo_entrp">    -11.33227348 </i>
    <i name="e_0_energy">    -11.33227348 </i>
   </energy>
  </scstep>
  <scstep>
   <time name="dav">    0.15    0.15</time>
   <time name="total">    0.90    0.90</time>
   <energy>
    <i name="e_fr_energy">    -11.33227710 </i>
    <i name="e_wo_entrp">    -11.33227710 </i>
    <i name="e_0_energy">    -11.33227710 </i>
   </energy>
  </scstep>
  <scstep>
   <time name="dav">    0.15    0.15</time>
   <time name="total">    0.89    0.90</time>
   <energy>
    <i name="e_fr_energy">    -11.33227854 </i>
    <i name="e_wo_entrp">    -11.33227854 </i>
    <i name="e_0_energy">    -11.33227854 </i>
   </energy>
  </scstep>
  <scstep>
   <time name="dav">    0.15    0.15</time>
   <time name="total">    0.90    0.90</time>
   <energy>
    <i name="e_fr_energy">    -11.33227933 </i>
    <i name="e_wo_entrp">    -11.33227933 </i>
    <i name="e_0_energy">    -11.33227933 </i>
   </energy>
  </scstep>
  <scstep>
   <time name="dav">    0.09    0.09</time>
   <time name="total">    0.84    0.84</time>
   <energy>
    <i name="e_fr_energy">    -11.33228128 </i>
    <i name="e_wo_entrp">    -11.33228128 </i>
    <i name="e_0_energy">    -11.33228128 </i>
   </energy>
  </scstep>
  <scstep>
   <time name="dav">    0.12    0.12</time>
   <time name="total">    0.91    0.91</time>
   <energy>
    <i name="e_fr_energy">    -11.33228346 </i>
    <i name="e_wo_entrp">    -11.33228346 </i>
    <i name="e_0_energy">    -11.33228346 </i>
   </energy>
  </scstep>
  <scstep>
   <time name="dav">    0.15    0.15</time>
   <time name="total">    0.90    0.91</time>
   <energy>
    <i name="e_fr_energy">    -11.33228492 </i>
    <i name="e_wo_entrp">    -11.33228492 </i>
    <i name="e_0_energy">    -11.33228492 </i>
   </energy>
  </scstep>
  <scstep>
   <time name="dav">    0.15    0.15</time>
   <time name="total">    0.89    0.90</time>
   <energy>
    <i name="e_fr_energy">    -11.33228543 </i>
    <i name="e_wo_entrp">    -11.33228543 </i>
    <i name="e_0_energy">    -11.33228543 </i>
   </energy>
  </scstep>
  <scstep>
   <time name="dav">    0.15    0.15</time>
   <time name="total">    0.90    0.90</time>
   <energy>
    <i name="e_fr_energy">    -11.33228606 </i>
    <i name="e_wo_entrp">    -11.33228606 </i>
    <i name="e_0_energy">    -11.33228606 </i>
   </energy>
  </scstep>
  <scstep>
   <time name="dav">    0.15    0.15</time>
   <time name="total">    0.89    0.90</time>
   <energy>
    <i name="e_fr_energy">    -11.33228618 </i>
    <i name="e_wo_entrp">    -11.33228618 </i>
    <i name="e_0_energy">    -11.33228618 </i>
   </energy>
  </scstep>
  <scstep>
   <time name="dav">    0.15    0.15</time>
   <time name="total">    0.97    0.97</time>
   <energy>
    <i name="e_fr_energy">    -11.33228623 </i>
    <i name="e_wo_entrp">    -11.33228623 </i>
    <i name="e_0_energy">    -11.33228623 </i>
   </energy>
  </scstep>
  <scstep>
   <time name="dav">    0.15    0.15</time>
   <time name="total">    0.90    0.91</time>
   <energy>
    <i name="e_fr_energy">    -11.33228626 </i>
    <i name="e_wo_entrp">    -11.33228626 </i>
    <i name="e_0_energy">    -11.33228626 </i>
   </energy>
  </scstep>
  <scstep>
   <time name="dav">    0.15    0.15</time>
   <time name="total">    0.90    0.90</time>
   <energy>
    <i name="e_fr_energy">    -11.33228628 </i>
    <i name="e_wo_entrp">    -11.33228628 </i>
    <i name="e_0_energy">    -11.33228628 </i>
   </energy>
  </scstep>
  <scstep>
   <time name="dav">    0.09    0.09</time>
   <time name="total">    0.57    0.58</time>
   <energy>
    <i name="alphaZ">      0.03722024 </i>
    <i name="ewald">     65.24234890 </i>
    <i name="hartreedc">   -200.62972300 </i>
    <i name="XCdc">     17.68245770 </i>
    <i name="pawpsdc">    243.53509983 </i>
    <i name="pawaedc">   -244.18809911 </i>
    <i name="eentropy">     -0.00000000 </i>
    <i name="bandstr">    -65.09608004 </i>
    <i name="atom">    172.08448920 </i>
    <i name="e_fr_energy">    -11.33228628 </i>
    <i name="e_wo_entrp">    -11.33228628 </i>
    <i name="e_0_energy">    -11.33228628 </i>
   </energy>
  </scstep>
  <structure>
   <crystal>
    <varray name="basis" >
     <v>      16.00000000       0.00000000       0.00000000 </v>
     <v>       0.00000000      16.00000000       0.00000000 </v>
     <v>       0.00000000       0.00000000      16.00000000 </v>
    </varray>
    <i name="volume">   4096.00000000 </i>
    <varray name="rec_basis" >
     <v>       0.06250000       0.00000000       0.00000000 </v>
     <v>       0.00000000       0.06250000       0.00000000 </v>
     <v>       0.00000000       0.00000000       0.06250000 </v>
    </varray>
   </crystal>
   <varray name="positions" >
    <v>       0.52180793       0.44763152       0.50000000 </v>
    <v>       0.52180793       0.55236848       0.50000000 </v>
    <v>       0.47501168       0.50000000       0.50000000 </v>
   </varray>
  </structure>
  <varray name="forces" >
   <v>      -0.12630011      -0.28199774       0.00000000 </v>
   <v>      -0.12630011       0.28199774       0.00000000 </v>
   <v>       0.25260022       0.00000000       0.00000000 </v>
  </varray>
  <varray name="stress" >
   <v>      -0.19274936       0.00000000       0.00000000 </v>
   <v>       0.00000000       0.08122899       0.00000000 </v>
   <v>       0.00000000       0.00000000      -0.08830253 </v>
  </varray>
  <energy>
   <i name="e_fr_energy">    -11.33228628 </i>
   <i name="e_wo_entrp">    -11.33228628 </i>
   <i name="e_0_energy">     -0.00000000 </i>
  </energy>
  <time name="totalsc">   16.44   16.60</time>
 </calculation>
 <calculation>
  <scstep>
   <time name="dav">    0.15    0.15</time>
   <time name="total">    0.89    0.90</time>
   <energy>
    <i name="alphaZ">      0.03722024 </i>
    <i name="ewald">     65.23019363 </i>
    <i name="hartreedc">   -200.62370700 </i>
    <i name="XCdc">     17.68212811 </i>
    <i name="pawpsdc">    243.53508556 </i>
    <i name="pawaedc">   -244.18808483 </i>
    <i name="eentropy">     -0.00000000 </i>
    <i name="bandstr">    -65.08961167 </i>
    <i name="atom">    172.08448920 </i>
    <i name="e_fr_energy">    -11.33228676 </i>
    <i name="e_wo_entrp">    -11.33228676 </i>
    <i name="e_0_energy">    -11.33228676 </i>
   </energy>
  </scstep>
  <scstep>
   <time name="dav">    0.09    0.09</time>
   <time name="total">    0.83    0.83</time>
   <energy>
    <i name="e_fr_energy">    -11.33228665 </i>
    <i name="e_wo_entrp">    -11.33228665 </i>
    <i name="e_0_energy">    -11.33228665 </i>
   </energy>
  </scstep>
  <scstep>
   <time name="dav">    0.15    0.15</time>
   <time name="total">    0.92    0.93</time>
   <energy>
    <i name="e_fr_energy">    -11.33228667 </i>
    <i name="e_wo_entrp">    -11.33228667 </i>
    <i name="e_0_energy">    -11.33228667 </i>
   </energy>
  </scstep>
  <scstep>
   <time name="dav">    0.15    0.15</time>
   <time name="total">    0.63    0.64</time>
   <energy>
    <i name="alphaZ">      0.03722024 </i>
    <i name="ewald">     65.23019363 </i>
    <i name="hartreedc">   -200.61971505 </i>
    <i name="XCdc">     17.68182182 </i>
    <i name="pawpsdc">    243.47487635 </i>
    <i name="pawaedc">   -244.12781748 </i>
    <i name="eentropy">     -0.00000000 </i>
    <i name="bandstr">    -65.09335538 </i>
    <i name="atom">    172.08448920 </i>
    <i name="e_fr_energy">    -11.33228668 </i>
    <i name="e_wo_entrp">    -11.33228668 </i>
    <i name="e_0_energy">    -11.33228668 </i>
   </energy>
  </scstep>
  <structure>
   <crystal>
    <varray name="basis" >
     <v>      16.00000000       0.00000000       0.00000000 </v>
     <v>       0.00000000      16.00000000       0.00000000 </v>
     <v>       0.00000000       0.00000000      16.00000000 </v>
    </varray>
    <i name="volume">   4096.00000000 </i>
    <varray name="rec_basis" >
     <v>       0.06250000       0.00000000       0.00000000 </v>
     <v>       0.00000000       0.06250000       0.00000000 </v>
     <v>       0.00000000       0.00000000       0.06250000 </v>
    </varray>
   </crystal>
   <varray name="positions" >
    <v>       0.52181055       0.44762790       0.50000000 </v>
    <v>       0.52181055       0.55237210       0.50000000 </v>
    <v>       0.47500644       0.50000000       0.50000000 </v>
   </varray>
  </structure>
  <varray name="forces" >
   <v>      -0.12855510      -0.27949833       0.00000000 </v>
   <v>      -0.12855510       0.27949833       0.00000000 </v>
   <v>       0.25711021       0.00000000       0.00000000 </v>
  </varray>
  <varray name="stress" >
   <v>      -0.19408122       0.00000000       0.00000000 </v>
   <v>       0.00000000       0.07959974       0.00000000 </v>
   <v>       0.00000000       0.00000000      -0.08832637 </v>
  </varray>
  <energy>
   <i name="e_fr_energy">    -11.33228668 </i>
   <i name="e_wo_entrp">    -11.33228668 </i>
   <i name="e_0_energy">     -0.00000000 </i>
  </energy>
  <time name="totalsc">    4.64    4.71</time>
 </calculation>
 <calculation>
  <scstep>
   <time name="dav">    0.09    0.09</time>
   <time name="total">    0.84    0.84</time>
   <energy>
    <i name="alphaZ">      0.03722024 </i>
    <i name="ewald">     65.20022275 </i>
    <i name="hartreedc">   -200.52738774 </i>
    <i name="XCdc">     17.67508625 </i>
    <i name="pawpsdc">    243.47222330 </i>
    <i name="pawaedc">   -244.12516273 </i>
    <i name="eentropy">     -0.00000000 </i>
    <i name="bandstr">    -65.15688943 </i>
    <i name="atom">    172.08448920 </i>
    <i name="e_fr_energy">    -11.34019816 </i>
    <i name="e_wo_entrp">    -11.34019816 </i>
    <i name="e_0_energy">    -11.34019816 </i>
   </energy>
  </scstep>
  <scstep>
   <time name="dav">    0.19    0.19</time>
   <time name="total">    0.95    0.96</time>
   <energy>
    <i name="e_fr_energy">    -11.34016625 </i>
    <i name="e_wo_entrp">    -11.34016625 </i>
    <i name="e_0_energy">    -11.34016625 </i>
   </energy>
  </scstep>
  <scstep>
   <time name="dav">    0.15    0.15</time>
   <time name="total">    0.90    0.91</time>
   <energy>
    <i name="e_fr_energy">    -11.34034622 </i>
    <i name="e_wo_entrp">    -11.34034622 </i>
    <i name="e_0_energy">    -11.34034622 </i>
   </energy>
  </scstep>
  <scstep>
   <time name="dav">    0.15    0.15</time>
   <time name="total">    0.89    0.90</time>
   <energy>
    <i name="e_fr_energy">    -11.34039630 </i>
    <i name="e_wo_entrp">    -11.34039630 </i>
    <i name="e_0_energy">    -11.34039630 </i>
   </energy>
  </scstep>
  <scstep>
   <time name="dav">    0.15    0.15</time>
   <time name="total">    0.89    0.90</time>
   <energy>
    <i name="e_fr_energy">    -11.34040273 </i>
    <i name="e_wo_entrp">    -11.34040273 </i>
    <i name="e_0_energy">    -11.34040273 </i>
   </energy>
  </scstep>
  <scstep>
   <time name="dav">    0.15    0.15</time>
   <time name="total">    0.98    0.99</time>
   <energy>
    <i name="e_fr_energy">    -11.34040848 </i>
    <i name="e_wo_entrp">    -11.34040848 </i>
    <i name="e_0_energy">    -11.34040848 </i>
   </energy>
  </scstep>
  <scstep>
   <time name="dav">    0.12    0.12</time>
   <time name="total">    0.86    0.87</time>
   <energy>
    <i name="e_fr_energy">    -11.34041733 </i>
    <i name="e_wo_entrp">    -11.34041733 </i>
    <i name="e_0_energy">    -11.34041733 </i>
   </energy>
  </scstep>
  <scstep>
   <time name="dav">    0.15    0.15</time>
   <time name="total">    0.92    0.92</time>
   <energy>
    <i name="e_fr_energy">    -11.34042577 </i>
    <i name="e_wo_entrp">    -11.34042577 </i>
    <i name="e_0_energy">    -11.34042577 </i>
   </energy>
  </scstep>
  <scstep>
   <time name="dav">    0.16    0.16</time>
   <time name="total">    0.96    0.97</time>
   <energy>
    <i name="e_fr_energy">    -11.34042967 </i>
    <i name="e_wo_entrp">    -11.34042967 </i>
    <i name="e_0_energy">    -11.34042967 </i>
   </energy>
  </scstep>
  <scstep>
   <time name="dav">    0.15    0.15</time>
   <time name="total">    0.93    0.93</time>
   <energy>
    <i name="e_fr_energy">    -11.34043402 </i>
    <i name="e_wo_entrp">    -11.34043402 </i>
    <i name="e_0_energy">    -11.34043402 </i>
   </energy>
  </scstep>
  <scstep>
   <time name="dav">    0.15    0.15</time>
   <time name="total">    0.89    0.90</time>
   <energy>
    <i name="e_fr_energy">    -11.34043537 </i>
    <i name="e_wo_entrp">    -11.34043537 </i>
    <i name="e_0_energy">    -11.34043537 </i>
   </energy>
  </scstep>
  <scstep>
   <time name="dav">    0.15    0.15</time>
   <time name="total">    0.90    0.90</time>
   <energy>
    <i name="e_fr_energy">    -11.34043600 </i>
    <i name="e_wo_entrp">    -11.34043600 </i>
    <i name="e_0_energy">    -11.34043600 </i>
   </energy>
  </scstep>
  <scstep>
   <time name="dav">    0.15    0.15</time>
   <time name="total">    0.90    0.91</time>
   <energy>
    <i name="e_fr_energy">    -11.34043640 </i>
    <i name="e_wo_entrp">    -11.34043640 </i>
    <i name="e_0_energy">    -11.34043640 </i>
   </energy>
  </scstep>
  <scstep>
   <time name="dav">    0.15    0.15</time>
   <time name="total">    0.97    0.98</time>
   <energy>
    <i name="e_fr_energy">    -11.34043652 </i>
    <i name="e_wo_entrp">    -11.34043652 </i>
    <i name="e_0_energy">    -11.34043652 </i>
   </energy>
  </scstep>
  <scstep>
   <time name="dav">    0.15    0.15</time>
   <time name="total">    0.89    0.91</time>
   <energy>
    <i name="e_fr_energy">    -11.34043660 </i>
    <i name="e_wo_entrp">    -11.34043660 </i>
    <i name="e_0_energy">    -11.34043660 </i>
   </energy>
  </scstep>
  <scstep>
   <time name="dav">    0.15    0.15</time>
   <time name="total">    0.90    0.91</time>
   <energy>
    <i name="e_fr_energy">    -11.34043661 </i>
    <i name="e_wo_entrp">    -11.34043661 </i>
    <i name="e_0_energy">    -11.34043661 </i>
   </energy>
  </scstep>
  <scstep>
   <time name="dav">    0.12    0.12</time>
   <time name="total">    0.87    0.88</time>
   <energy>
    <i name="e_fr_energy">    -11.34043662 </i>
    <i name="e_wo_entrp">    -11.34043662 </i>
    <i name="e_0_energy">    -11.34043662 </i>
   </energy>
  </scstep>
  <scstep>
   <time name="dav">    0.15    0.15</time>
   <time name="total">    0.63    0.64</time>
   <energy>
    <i name="alphaZ">      0.03722024 </i>
    <i name="ewald">     65.20022275 </i>
    <i name="hartreedc">   -200.60158208 </i>
    <i name="XCdc">     17.68383172 </i>
    <i name="pawpsdc">    244.23880363 </i>
    <i name="pawaedc">   -244.89284628 </i>
    <i name="eentropy">     -0.00000000 </i>
    <i name="bandstr">    -65.09057580 </i>
    <i name="atom">    172.08448920 </i>
    <i name="e_fr_energy">    -11.34043662 </i>
    <i name="e_wo_entrp">    -11.34043662 </i>
    <i name="e_0_energy">    -11.34043662 </i>
   </energy>
  </scstep>
  <structure>
   <crystal>
    <varray name="basis" >
     <v>      16.00000000       0.00000000       0.00000000 </v>
     <v>       0.00000000      16.00000000       0.00000000 </v>
     <v>       0.00000000       0.00000000      16.00000000 </v>
    </varray>
    <i name="volume">   4096.00000000 </i>
    <varray name="rec_basis" >
     <v>       0.06250000       0.00000000       0.00000000 </v>
     <v>       0.00000000       0.06250000       0.00000000 </v>
     <v>       0.00000000       0.00000000       0.06250000 </v>
    </varray>
   </crystal>
   <varray name="positions" >
    <v>       0.52149670       0.44688286       0.50000000 </v>
    <v>       0.52149670       0.55311714       0.50000000 </v>
    <v>       0.47563414       0.50000000       0.50000000 </v>
   </varray>
  </structure>
  <varray name="forces" >
   <v>      -0.05127368      -0.17753394       0.00000000 </v>
   <v>      -0.05127368       0.17753394       0.00000000 </v>
   <v>       0.10254735       0.00000000       0.00000000 </v>
  </varray>
  <varray name="stress" >
   <v>      -0.14929600       0.00000000       0.00000000 </v>
   <v>       0.00000000       0.01513305       0.00000000 </v>
   <v>       0.00000000       0.00000000      -0.08845613 </v>
  </varray>
  <energy>
   <i name="e_fr_energy">    -11.34043662 </i>
   <i name="e_wo_entrp">    -11.34043662 </i>
   <i name="e_0_energy">     -0.00000000 </i>
  </energy>
  <time name="totalsc">   17.52   17.71</time>
 </calculation>
 <calculation>
  <scstep>
   <time name="dav">    0.09    0.09</time>
   <time name="total">    0.93    0.96</time>
   <energy>
    <i name="alphaZ">      0.03722024 </i>
    <i name="ewald">     65.12823882 </i>
    <i name="hartreedc">   -200.46968487 </i>
    <i name="XCdc">     17.67439973 </i>
    <i name="pawpsdc">    244.23882247 </i>
    <i name="pawaedc">   -244.89286514 </i>
    <i name="eentropy">     -0.00000000 </i>
    <i name="bandstr">    -65.14425123 </i>
    <i name="atom">    172.08448920 </i>
    <i name="e_fr_energy">    -11.34363079 </i>
    <i name="e_wo_entrp">    -11.34363079 </i>
    <i name="e_0_energy">    -11.34363079 </i>
   </energy>
  </scstep>
  <scstep>
   <time name="dav">    0.12    0.12</time>
   <time name="total">    0.86    0.86</time>
   <energy>
    <i name="e_fr_energy">    -11.34357788 </i>
    <i name="e_wo_entrp">    -11.34357788 </i>
    <i name="e_0_energy">    -11.34357788 </i>
   </energy>
  </scstep>
  <scstep>
   <time name="dav">    0.15    0.15</time>
   <time name="total">    0.88    0.90</time>
   <energy>
    <i name="e_fr_energy">    -11.34386128 </i>
    <i name="e_wo_entrp">    -11.34386128 </i>
    <i name="e_0_energy">    -11.34386128 </i>
   </energy>
  </scstep>
  <scstep>
   <time name="dav">    0.15    0.15</time>
   <time name="total">    0.91    0.92</time>
   <energy>
    <i name="e_fr_energy">    -11.34392828 </i>
    <i name="e_wo_entrp">    -11.34392828 </i>
    <i name="e_0_energy">    -11.34392828 </i>
   </energy>
  </scstep>
  <scstep>
   <time name="dav">    0.15    0.15</time>
   <time name="total">    0.91    0.92</time>
   <energy>
    <i name="e_fr_energy">    -11.34393797 </i>
    <i name="e_wo_entrp">    -11.34393797 </i>
    <i name="e_0_energy">    -11.34393797 </i>
   </energy>
  </scstep>
  <scstep>
   <time name="dav">    0.15    0.15</time>
   <time name="total">    0.89    0.90</time>
   <energy>
    <i name="e_fr_energy">    -11.34394605 </i>
    <i name="e_wo_entrp">    -11.34394605 </i>
    <i name="e_0_energy">    -11.34394605 </i>
   </energy>
  </scstep>
  <scstep>
   <time name="dav">    0.12    0.12</time>
   <time name="total">    0.86    0.87</time>
   <energy>
    <i name="e_fr_energy">    -11.34395833 </i>
    <i name="e_wo_entrp">    -11.34395833 </i>
    <i name="e_0_energy">    -11.34395833 </i>
   </energy>
  </scstep>
  <scstep>
   <time name="dav">    0.15    0.15</time>
   <time name="total">    0.89    0.90</time>
   <energy>
    <i name="e_fr_energy">    -11.34396972 </i>
    <i name="e_wo_entrp">    -11.34396972 </i>
    <i name="e_0_energy">    -11.34396972 </i>
   </energy>
  </scstep>
  <scstep>
   <time name="dav">    0.15    0.15</time>
   <time name="total">    0.89    0.90</time>
   <energy>
    <i name="e_fr_energy">    -11.34397496 </i>
    <i name="e_wo_entrp">    -11.34397496 </i>
    <i name="e_0_energy">    -11.34397496 </i>
   </energy>
  </scstep>
  <scstep>
   <time name="dav">    0.14    0.15</time>
   <time name="total">    0.88    0.89</time>
   <energy>
    <i name="e_fr_energy">    -11.34398111 </i>
    <i name="e_wo_entrp">    -11.34398111 </i>
    <i name="e_0_energy">    -11.34398111 </i>
   </energy>
  </scstep>
  <scstep>
   <time name="dav">    0.15    0.15</time>
   <time name="total">    0.89    0.90</time>
   <energy>
    <i name="e_fr_energy">    -11.34398270 </i>
    <i name="e_wo_entrp">    -11.34398270 </i>
    <i name="e_0_energy">    -11.34398270 </i>
   </energy>
  </scstep>
  <scstep>
   <time name="dav">    0.15    0.15</time>
   <time name="total">    0.89    0.90</time>
   <energy>
    <i name="e_fr_energy">    -11.34398368 </i>
    <i name="e_wo_entrp">    -11.34398368 </i>
    <i name="e_0_energy">    -11.34398368 </i>
   </energy>
  </scstep>
  <scstep>
   <time name="dav">    0.15    0.15</time>
   <time name="total">    0.90    0.91</time>
   <energy>
    <i name="e_fr_energy">    -11.34398419 </i>
    <i name="e_wo_entrp">    -11.34398419 </i>
    <i name="e_0_energy">    -11.34398419 </i>
   </energy>
  </scstep>
  <scstep>
   <time name="dav">    0.15    0.15</time>
   <time name="total">    0.90    0.91</time>
   <energy>
    <i name="e_fr_energy">    -11.34398436 </i>
    <i name="e_wo_entrp">    -11.34398436 </i>
    <i name="e_0_energy">    -11.34398436 </i>
   </energy>
  </scstep>
  <scstep>
   <time name="dav">    0.15    0.15</time>
   <time name="total">    0.89    0.90</time>
   <energy>
    <i name="e_fr_energy">    -11.34398445 </i>
    <i name="e_wo_entrp">    -11.34398445 </i>
    <i name="e_0_energy">    -11.34398445 </i>
   </energy>
  </scstep>
  <scstep>
   <time name="dav">    0.15    0.15</time>
   <time name="total">    0.97    0.98</time>
   <energy>
    <i name="e_fr_energy">    -11.34398447 </i>
    <i name="e_wo_entrp">    -11.34398447 </i>
    <i name="e_0_energy">    -11.34398447 </i>
   </energy>
  </scstep>
  <scstep>
   <time name="dav">    0.12    0.12</time>
   <time name="total">    0.88    0.89</time>
   <energy>
    <i name="e_fr_energy">    -11.34398448 </i>
    <i name="e_wo_entrp">    -11.34398448 </i>
    <i name="e_0_energy">    -11.34398448 </i>
   </energy>
  </scstep>
  <scstep>
   <time name="dav">    0.15    0.15</time>
   <time name="total">    0.63    0.64</time>
   <energy>
    <i name="alphaZ">      0.03722024 </i>
    <i name="ewald">     65.12823882 </i>
    <i name="hartreedc">   -200.54399076 </i>
    <i name="XCdc">     17.68364081 </i>
    <i name="pawpsdc">    244.96704971 </i>
    <i name="pawaedc">   -245.62225490 </i>
    <i name="eentropy">     -0.00000000 </i>
    <i name="bandstr">    -65.07837760 </i>
    <i name="atom">    172.08448920 </i>
    <i name="e_fr_energy">    -11.34398449 </i>
    <i name="e_wo_entrp">    -11.34398449 </i>
    <i name="e_0_energy">    -11.34398449 </i>
   </energy>
  </scstep>
  <structure>
   <crystal>
    <varray name="basis" >
     <v>      16.00000000       0.00000000       0.00000000 </v>
     <v>       0.00000000      16.00000000       0.00000000 </v>
     <v>       0.00000000       0.00000000      16.00000000 </v>
    </varray>
    <i name="volume">   4096.00000000 </i>
    <varray name="rec_basis" >
     <v>       0.06250000       0.00000000       0.00000000 </v>
     <v>       0.00000000       0.06250000       0.00000000 </v>
     <v>       0.00000000       0.00000000       0.06250000 </v>
    </varray>
   </crystal>
   <varray name="positions" >
    <v>       0.52111571       0.44597845       0.50000000 </v>
    <v>       0.52111571       0.55402155       0.50000000 </v>
    <v>       0.47639612       0.50000000       0.50000000 </v>
   </varray>
  </structure>
  <varray name="forces" >
   <v>       0.03771078      -0.05139608       0.00000000 </v>
   <v>       0.03771078       0.05139608       0.00000000 </v>
   <v>      -0.07542156      -0.00000000       0.00000000 </v>
  </varray>
  <varray name="stress" >
   <v>      -0.09997639       0.00000000       0.00000000 </v>
   <v>       0.00000000      -0.06726258       0.00000000 </v>
   <v>       0.00000000       0.00000000      -0.08854084 </v>
  </varray>
  <energy>
   <i name="e_fr_energy">    -11.34398449 </i>
   <i name="e_wo_entrp">    -11.34398449 </i>
   <i name="e_0_energy">     -0.00000000 </i>
  </energy>
  <time name="totalsc">   17.23   17.47</time>
 </calculation>
 <calculation>
  <scstep>
   <time name="dav">    0.09    0.09</time>
   <time name="total">    0.83    0.84</time>
   <energy>
    <i name="alphaZ">      0.03722024 </i>
    <i name="ewald">     64.57703601 </i>
    <i name="hartreedc">   -200.26588483 </i>
    <i name="XCdc">     17.66822942 </i>
    <i name="pawpsdc">    244.96705776 </i>
    <i name="pawaedc">   -245.62226295 </i>
    <i name="eentropy">     -0.00000000 </i>
    <i name="bandstr">    -64.78982336 </i>
    <i name="atom">    172.08448920 </i>
    <i name="e_fr_energy">    -11.34393852 </i>
    <i name="e_wo_entrp">    -11.34393852 </i>
    <i name="e_0_energy">    -11.34393852 </i>
   </energy>
  </scstep>
  <scstep>
   <time name="dav">    0.12    0.12</time>
   <time name="total">    0.90    0.90</time>
   <energy>
    <i name="e_fr_energy">    -11.34380679 </i>
    <i name="e_wo_entrp">    -11.34380679 </i>
    <i name="e_0_energy">    -11.34380679 </i>
   </energy>
  </scstep>
  <scstep>
   <time name="dav">    0.15    0.15</time>
   <time name="total">    0.89    0.90</time>
   <energy>
    <i name="e_fr_energy">    -11.34381476 </i>
    <i name="e_wo_entrp">    -11.34381476 </i>
    <i name="e_0_energy">    -11.34381476 </i>
   </energy>
  </scstep>
  <scstep>
   <time name="dav">    0.15    0.15</time>
   <time name="total">    0.91    0.94</time>
   <energy>
    <i name="e_fr_energy">    -11.34381919 </i>
    <i name="e_wo_entrp">    -11.34381919 </i>
    <i name="e_0_energy">    -11.34381919 </i>
   </energy>
  </scstep>
  <scstep>
   <time name="dav">    0.15    0.15</time>
   <time name="total">    0.91    0.91</time>
   <energy>
    <i name="e_fr_energy">    -11.34382219 </i>
    <i name="e_wo_entrp">    -11.34382219 </i>
    <i name="e_0_energy">    -11.34382219 </i>
   </energy>
  </scstep>
  <scstep>
   <time name="dav">    0.15    0.15</time>
   <time name="total">    0.89    0.90</time>
   <energy>
    <i name="e_fr_energy">    -11.34382426 </i>
    <i name="e_wo_entrp">    -11.34382426 </i>
    <i name="e_0_energy">    -11.34382426 </i>
   </energy>
  </scstep>
  <scstep>
   <time name="dav">    0.12    0.12</time>
   <time name="total">    0.86    0.86</time>
   <energy>
    <i name="e_fr_energy">    -11.34382521 </i>
    <i name="e_wo_entrp">    -11.34382521 </i>
    <i name="e_0_energy">    -11.34382521 </i>
   </energy>
  </scstep>
  <scstep>
   <time name="dav">    0.09    0.09</time>
   <time name="total">    0.83    0.84</time>
   <energy>
    <i name="e_fr_energy">    -11.34382714 </i>
    <i name="e_wo_entrp">    -11.34382714 </i>
    <i name="e_0_energy">    -11.34382714 </i>
   </energy>
  </scstep>
  <scstep>
   <time name="dav">    0.12    0.12</time>
   <time name="total">    0.94    0.95</time>
   <energy>
    <i name="e_fr_energy">    -11.34382795 </i>
    <i name="e_wo_entrp">    -11.34382795 </i>
    <i name="e_0_energy">    -11.34382795 </i>
   </energy>
  </scstep>
  <scstep>
   <time name="dav">    0.15    0.15</time>
   <time name="total">    0.89    0.90</time>
   <energy>
    <i name="e_fr_energy">    -11.34382867 </i>
    <i name="e_wo_entrp">    -11.34382867 </i>
    <i name="e_0_energy">    -11.34382867 </i>
   </energy>
  </scstep>
  <scstep>
   <time name="dav">    0.15    0.15</time>
   <time name="total">    1.10    1.11</time>
   <energy>
    <i name="e_fr_energy">    -11.34382917 </i>
    <i name="e_wo_entrp">    -11.34382917 </i>
    <i name="e_0_energy">    -11.34382917 </i>
   </energy>
  </scstep>
  <scstep>
   <time name="dav">    0.15    0.15</time>
   <time name="total">    0.88    0.88</time>
   <energy>
    <i name="e_fr_energy">    -11.34382945 </i>
    <i name="e_wo_entrp">    -11.34382945 </i>
    <i name="e_0_energy">    -11.34382945 </i>
   </energy>
  </scstep>
  <scstep>
   <time name="dav">    0.15    0.15</time>
   <time name="total">    0.94    0.95</time>
   <energy>
    <i name="e_fr_energy">    -11.34382951 </i>
    <i name="e_wo_entrp">    -11.34382951 </i>
    <i name="e_0_energy">    -11.34382951 </i>
   </energy>
  </scstep>
  <scstep>
   <time name="dav">    0.15    0.15</time>
   <time name="total">    0.90    0.91</time>
   <energy>
    <i name="e_fr_energy">    -11.34382957 </i>
    <i name="e_wo_entrp">    -11.34382957 </i>
    <i name="e_0_energy">    -11.34382957 </i>
   </energy>
  </scstep>
  <scstep>
   <time name="dav">    0.15    0.15</time>
   <time name="total">    0.95    0.96</time>
   <energy>
    <i name="e_fr_energy">    -11.34382959 </i>
    <i name="e_wo_entrp">    -11.34382959 </i>
    <i name="e_0_energy">    -11.34382959 </i>
   </energy>
  </scstep>
[...]
   </energy>
  </scstep>
  <scstep>
   <time name="dav">    0.15    0.15</time>
   <time name="total">    0.88    0.89</time>
   <energy>
    <i name="e_fr_energy">    -11.34413018 </i>
    <i name="e_wo_entrp">    -11.34413018 </i>
    <i name="e_0_energy">    -11.34413018 </i>
   </energy>
  </scstep>
  <scstep>
   <time name="dav">    0.15    0.15</time>
   <time name="total">    0.88    0.89</time>
   <energy>
    <i name="e_fr_energy">    -11.34413023 </i>
    <i name="e_wo_entrp">    -11.34413023 </i>
    <i name="e_0_energy">    -11.34413023 </i>
   </energy>
  </scstep>
  <scstep>
   <time name="dav">    0.14    0.15</time>
   <time name="total">    0.88    0.89</time>
   <energy>
    <i name="e_fr_energy">    -11.34413026 </i>
    <i name="e_wo_entrp">    -11.34413026 </i>
    <i name="e_0_energy">    -11.34413026 </i>
   </energy>
  </scstep>
  <scstep>
   <time name="dav">    0.14    0.14</time>
   <time name="total">    0.88    0.89</time>
   <energy>
    <i name="e_fr_energy">    -11.34413027 </i>
    <i name="e_wo_entrp">    -11.34413027 </i>
    <i name="e_0_energy">    -11.34413027 </i>
   </energy>
  </scstep>
  <scstep>
   <time name="dav">    0.12    0.12</time>
   <time name="total">    0.59    0.60</time>
   <energy>
    <i name="alphaZ">      0.03722024 </i>
    <i name="ewald">     64.90209267 </i>
    <i name="hartreedc">   -200.35484933 </i>
    <i name="XCdc">     17.67169567 </i>
    <i name="pawpsdc">    243.82867923 </i>
    <i name="pawaedc">   -244.48280340 </i>
    <i name="eentropy">     -0.00000000 </i>
    <i name="bandstr">    -65.03065455 </i>
    <i name="atom">    172.08448920 </i>
    <i name="e_fr_energy">    -11.34413028 </i>
    <i name="e_wo_entrp">    -11.34413028 </i>
    <i name="e_0_energy">    -11.34413028 </i>
   </energy>
  </scstep>
  <structure>
   <crystal>
    <varray name="basis" >
     <v>      16.00000000       0.00000000       0.00000000 </v>
     <v>       0.00000000      16.00000000       0.00000000 </v>
     <v>       0.00000000       0.00000000      16.00000000 </v>
    </varray>
    <i name="volume">   4096.00000000 </i>
    <varray name="rec_basis" >
     <v>       0.06250000       0.00000000       0.00000000 </v>
     <v>       0.00000000       0.06250000       0.00000000 </v>
     <v>       0.00000000       0.00000000       0.06250000 </v>
    </varray>
   </crystal>
   <varray name="positions" >
    <v>       0.52115629       0.44589005       0.50000000 </v>
    <v>       0.52115629       0.55410995       0.50000000 </v>
    <v>       0.47631495       0.50000000       0.50000000 </v>
   </varray>
  </structure>
  <varray name="forces" >
   <v>      -0.00108455      -0.00156933       0.00000000 </v>
   <v>      -0.00108455       0.00156933       0.00000000 </v>
   <v>       0.00216909       0.00000000       0.00000000 </v>
  </varray>
  <varray name="stress" >
   <v>      -0.12116021       0.00000000       0.00000000 </v>
   <v>       0.00000000      -0.10032071       0.00000000 </v>
   <v>       0.00000000       0.00000000      -0.08833511 </v>
  </varray>
  <energy>
   <i name="e_fr_energy">    -11.34413028 </i>
   <i name="e_wo_entrp">    -11.34413028 </i>
   <i name="e_0_energy">     -0.00000000 </i>
  </energy>
  <time name="totalsc">   14.91   15.10</time>
  <eigenvalues>
   <array>
    <dimension dim="1">band</dimension>
    <dimension dim="2">kpoint</dimension>
    <dimension dim="3">spin</dimension>
    <field>eigene</field>
    <field>occ</field>
    <set>
     <set comment="spin 1">
      <set comment="kpoint 1">
       <r>  -16.6384    1.0000 </r>
       <r>   -9.8813    1.0000 </r>
       <r>   -5.9956    1.0000 </r>
       <r>   -5.0090    0.0000 </r>
       <r>   -0.5101    0.0000 </r>
       <r>    0.1475    0.0000 </r>
       <r>    0.3782    0.0000 </r>
       <r>    0.4710    0.0000 </r>
      </set>
     </set>
    </set>
   </array>
  </eigenvalues>
  <separator name="orbital magnetization" >
   <v name="MAGDIPOLOUT">      0.00000000      0.00000000      0.00000000</v>
  </separator>
  <dos>
   <i name="efermi">     -5.93502080 </i>
   <total>
    <array>
     <dimension dim="1">gridpoints</dimension>
     <dimension dim="2">spin</dimension>
     <field>energy</field>
     <field>total</field>
     <field>integrated</field>
     <set>
      <set comment="spin 1">
       <r>   -17.4938     0.0000     0.0000 </r>
       <r>   -17.4311     0.0000     0.0000 </r>
       <r>   -17.3684     0.0000     0.0000 </r>
       <r>   -17.3056     0.0000     0.0000 </r>
       <r>   -17.2429     0.0000     0.0000 </r>
       <r>   -17.1802     0.0000     0.0000 </r>
       <r>   -17.1174     0.0000     0.0000 </r>
       <r>   -17.0547     0.0000     0.0000 </r>
       <r>   -16.9920     0.0000     0.0000 </r>
       <r>   -16.9292     0.0000     0.0000 </r>
       <r>   -16.8665     0.0000     0.0000 </r>
       <r>   -16.8038     0.0000     0.0000 </r>
       <r>   -16.7410     0.0000     0.0000 </r>
       <r>   -16.6783     0.0000     0.0000 </r>
       <r>   -16.6156    31.8604     1.9987 </r>
       <r>   -16.5528     0.0000     2.0000 </r>
       <r>   -16.4901     0.0000     2.0000 </r>
       <r>   -16.4274     0.0000     2.0000 </r>
       <r>   -16.3646     0.0000     2.0000 </r>
       <r>   -16.3019     0.0000     2.0000 </r>
       <r>   -16.2392     0.0000     2.0000 </r>
       <r>   -16.1764     0.0000     2.0000 </r>
       <r>   -16.1137     0.0000     2.0000 </r>
       <r>   -16.0510     0.0000     2.0000 </r>
       <r>   -15.9882     0.0000     2.0000 </r>
       <r>   -15.9255     0.0000     2.0000 </r>
       <r>   -15.8627     0.0000     2.0000 </r>
       <r>   -15.8000     0.0000     2.0000 </r>
       <r>   -15.7373     0.0000     2.0000 </r>
       <r>   -15.6745     0.0000     2.0000 </r>
       <r>   -15.6118     0.0000     2.0000 </r>
       <r>   -15.5491     0.0000     2.0000 </r>
       <r>   -15.4863     0.0000     2.0000 </r>
       <r>   -15.4236     0.0000     2.0000 </r>
       <r>   -15.3609     0.0000     2.0000 </r>
       <r>   -15.2981     0.0000     2.0000 </r>
       <r>   -15.2354     0.0000     2.0000 </r>
       <r>   -15.1727     0.0000     2.0000 </r>
       <r>   -15.1099     0.0000     2.0000 </r>
       <r>   -15.0472     0.0000     2.0000 </r>
       <r>   -14.9845     0.0000     2.0000 </r>
       <r>   -14.9217     0.0000     2.0000 </r>
       <r>   -14.8590     0.0000     2.0000 </r>
       <r>   -14.7963     0.0000     2.0000 </r>
       <r>   -14.7335     0.0000     2.0000 </r>
       <r>   -14.6708     0.0000     2.0000 </r>
       <r>   -14.6081     0.0000     2.0000 </r>
       <r>   -14.5453     0.0000     2.0000 </r>
       <r>   -14.4826     0.0000     2.0000 </r>
       <r>   -14.4199     0.0000     2.0000 </r>
       <r>   -14.3571     0.0000     2.0000 </r>
       <r>   -14.2944     0.0000     2.0000 </r>
       <r>   -14.2317     0.0000     2.0000 </r>
       <r>   -14.1689     0.0000     2.0000 </r>
       <r>   -14.1062     0.0000     2.0000 </r>
       <r>   -14.0434     0.0000     2.0000 </r>
       <r>   -13.9807     0.0000     2.0000 </r>
       <r>   -13.9180     0.0000     2.0000 </r>
       <r>   -13.8552     0.0000     2.0000 </r>
       <r>   -13.7925     0.0000     2.0000 </r>
       <r>   -13.7298     0.0000     2.0000 </r>
       <r>   -13.6670     0.0000     2.0000 </r>
       <r>   -13.6043     0.0000     2.0000 </r>
       <r>   -13.5416     0.0000     2.0000 </r>
       <r>   -13.4788     0.0000     2.0000 </r>
       <r>   -13.4161     0.0000     2.0000 </r>
       <r>   -13.3534     0.0000     2.0000 </r>
       <r>   -13.2906     0.0000     2.0000 </r>
       <r>   -13.2279     0.0000     2.0000 </r>
       <r>   -13.1652     0.0000     2.0000 </r>
       <r>   -13.1024     0.0000     2.0000 </r>
       <r>   -13.0397     0.0000     2.0000 </r>
       <r>   -12.9770     0.0000     2.0000 </r>
       <r>   -12.9142     0.0000     2.0000 </r>
       <r>   -12.8515     0.0000     2.0000 </r>
       <r>   -12.7888     0.0000     2.0000 </r>
       <r>   -12.7260     0.0000     2.0000 </r>
       <r>   -12.6633     0.0000     2.0000 </r>
       <r>   -12.6006     0.0000     2.0000 </r>
       <r>   -12.5378     0.0000     2.0000 </r>
       <r>   -12.4751     0.0000     2.0000 </r>
       <r>   -12.4124     0.0000     2.0000 </r>
       <r>   -12.3496     0.0000     2.0000 </r>
       <r>   -12.2869     0.0000     2.0000 </r>
       <r>   -12.2241     0.0000     2.0000 </r>
       <r>   -12.1614     0.0000     2.0000 </r>
       <r>   -12.0987     0.0000     2.0000 </r>
       <r>   -12.0359     0.0000     2.0000 </r>
       <r>   -11.9732     0.0000     2.0000 </r>
       <r>   -11.9105     0.0000     2.0000 </r>
       <r>   -11.8477     0.0000     2.0000 </r>
       <r>   -11.7850     0.0000     2.0000 </r>
       <r>   -11.7223     0.0000     2.0000 </r>
       <r>   -11.6595     0.0000     2.0000 </r>
       <r>   -11.5968     0.0000     2.0000 </r>
       <r>   -11.5341     0.0000     2.0000 </r>
       <r>   -11.4713     0.0000     2.0000 </r>
       <r>   -11.4086     0.0000     2.0000 </r>
       <r>   -11.3459     0.0000     2.0000 </r>
       <r>   -11.2831     0.0000     2.0000 </r>
       <r>   -11.2204     0.0000     2.0000 </r>
       <r>   -11.1577     0.0000     2.0000 </r>
       <r>   -11.0949     0.0000     2.0000 </r>
       <r>   -11.0322     0.0000     2.0000 </r>
       <r>   -10.9695     0.0000     2.0000 </r>
       <r>   -10.9067     0.0000     2.0000 </r>
       <r>   -10.8440     0.0000     2.0000 </r>
       <r>   -10.7813     0.0000     2.0000 </r>
       <r>   -10.7185     0.0000     2.0000 </r>
       <r>   -10.6558     0.0000     2.0000 </r>
       <r>   -10.5931     0.0000     2.0000 </r>
       <r>   -10.5303     0.0000     2.0000 </r>
       <r>   -10.4676     0.0000     2.0000 </r>
       <r>   -10.4049     0.0000     2.0000 </r>
       <r>   -10.3421     0.0000     2.0000 </r>
       <r>   -10.2794     0.0000     2.0000 </r>
       <r>   -10.2166     0.0000     2.0000 </r>
       <r>   -10.1539     0.0000     2.0000 </r>
       <r>   -10.0912     0.0000     2.0000 </r>
       <r>   -10.0284     0.0000     2.0000 </r>
       <r>    -9.9657     0.0000     2.0000 </r>
       <r>    -9.9030     0.0355     2.0022 </r>
       <r>    -9.8402    31.8449     4.0000 </r>
       <r>    -9.7775     0.0000     4.0000 </r>
       <r>    -9.7148     0.0000     4.0000 </r>
       <r>    -9.6520     0.0000     4.0000 </r>
       <r>    -9.5893     0.0000     4.0000 </r>
       <r>    -9.5266     0.0000     4.0000 </r>
       <r>    -9.4638     0.0000     4.0000 </r>
       <r>    -9.4011     0.0000     4.0000 </r>
       <r>    -9.3384     0.0000     4.0000 </r>
       <r>    -9.2756     0.0000     4.0000 </r>
       <r>    -9.2129     0.0000     4.0000 </r>
       <r>    -9.1502     0.0000     4.0000 </r>
       <r>    -9.0874     0.0000     4.0000 </r>
       <r>    -9.0247     0.0000     4.0000 </r>
       <r>    -8.9620     0.0000     4.0000 </r>
       <r>    -8.8992     0.0000     4.0000 </r>
       <r>    -8.8365     0.0000     4.0000 </r>
       <r>    -8.7738     0.0000     4.0000 </r>
       <r>    -8.7110     0.0000     4.0000 </r>
       <r>    -8.6483     0.0000     4.0000 </r>
       <r>    -8.5856     0.0000     4.0000 </r>
       <r>    -8.5228     0.0000     4.0000 </r>
       <r>    -8.4601     0.0000     4.0000 </r>
       <r>    -8.3973     0.0000     4.0000 </r>
       <r>    -8.3346     0.0000     4.0000 </r>
       <r>    -8.2719     0.0000     4.0000 </r>
       <r>    -8.2091     0.0000     4.0000 </r>
       <r>    -8.1464     0.0000     4.0000 </r>
       <r>    -8.0837     0.0000     4.0000 </r>
       <r>    -8.0209     0.0000     4.0000 </r>
       <r>    -7.9582     0.0000     4.0000 </r>
       <r>    -7.8955     0.0000     4.0000 </r>
       <r>    -7.8327     0.0000     4.0000 </r>
       <r>    -7.7700     0.0000     4.0000 </r>
       <r>    -7.7073     0.0000     4.0000 </r>
       <r>    -7.6445     0.0000     4.0000 </r>
       <r>    -7.5818     0.0000     4.0000 </r>
       <r>    -7.5191     0.0000     4.0000 </r>
       <r>    -7.4563     0.0000     4.0000 </r>
       <r>    -7.3936     0.0000     4.0000 </r>
       <r>    -7.3309     0.0000     4.0000 </r>
       <r>    -7.2681     0.0000     4.0000 </r>
       <r>    -7.2054     0.0000     4.0000 </r>
       <r>    -7.1427     0.0000     4.0000 </r>
       <r>    -7.0799     0.0000     4.0000 </r>
       <r>    -7.0172     0.0000     4.0000 </r>
       <r>    -6.9545     0.0000     4.0000 </r>
       <r>    -6.8917     0.0000     4.0000 </r>
       <r>    -6.8290     0.0000     4.0000 </r>
       <r>    -6.7663     0.0000     4.0000 </r>
       <r>    -6.7035     0.0000     4.0000 </r>
       <r>    -6.6408     0.0000     4.0000 </r>
       <r>    -6.5780     0.0000     4.0000 </r>
       <r>    -6.5153     0.0000     4.0000 </r>
       <r>    -6.4526     0.0000     4.0000 </r>
       <r>    -6.3898     0.0000     4.0000 </r>
       <r>    -6.3271     0.0000     4.0000 </r>
       <r>    -6.2644     0.0000     4.0000 </r>
       <r>    -6.2016     0.0000     4.0000 </r>
       <r>    -6.1389     0.0000     4.0000 </r>
       <r>    -6.0762     0.0000     4.0000 </r>
       <r>    -6.0134     0.1860     4.0117 </r>
       <r>    -5.9507    31.6945     6.0000 </r>
       <r>    -5.8880     0.0000     6.0000 </r>
       <r>    -5.8252     0.0000     6.0000 </r>
       <r>    -5.7625     0.0000     6.0000 </r>
       <r>    -5.6998     0.0000     6.0000 </r>
       <r>    -5.6370     0.0000     6.0000 </r>
       <r>    -5.5743     0.0000     6.0000 </r>
       <r>    -5.5116     0.0000     6.0000 </r>
       <r>    -5.4488     0.0000     6.0000 </r>
       <r>    -5.3861     0.0000     6.0000 </r>
       <r>    -5.3234     0.0000     6.0000 </r>
       <r>    -5.2606     0.0000     6.0000 </r>
       <r>    -5.1979     0.0000     6.0000 </r>
       <r>    -5.1352     0.0000     6.0000 </r>
       <r>    -5.0724     0.0000     6.0000 </r>
       <r>    -5.0097    14.6837     6.9212 </r>
       <r>    -4.9470    17.1967     8.0000 </r>
       <r>    -4.8842     0.0000     8.0000 </r>
       <r>    -4.8215     0.0000     8.0000 </r>
       <r>    -4.7587     0.0000     8.0000 </r>
       <r>    -4.6960     0.0000     8.0000 </r>
       <r>    -4.6333     0.0000     8.0000 </r>
       <r>    -4.5705     0.0000     8.0000 </r>
       <r>    -4.5078     0.0000     8.0000 </r>
       <r>    -4.4451     0.0000     8.0000 </r>
       <r>    -4.3823     0.0000     8.0000 </r>
       <r>    -4.3196     0.0000     8.0000 </r>
       <r>    -4.2569     0.0000     8.0000 </r>
       <r>    -4.1941     0.0000     8.0000 </r>
       <r>    -4.1314     0.0000     8.0000 </r>
       <r>    -4.0687     0.0000     8.0000 </r>
       <r>    -4.0059     0.0000     8.0000 </r>
       <r>    -3.9432     0.0000     8.0000 </r>
       <r>    -3.8805     0.0000     8.0000 </r>
       <r>    -3.8177     0.0000     8.0000 </r>
       <r>    -3.7550     0.0000     8.0000 </r>
       <r>    -3.6923     0.0000     8.0000 </r>
       <r>    -3.6295     0.0000     8.0000 </r>
       <r>    -3.5668     0.0000     8.0000 </r>
       <r>    -3.5041     0.0000     8.0000 </r>
       <r>    -3.4413     0.0000     8.0000 </r>
       <r>    -3.3786     0.0000     8.0000 </r>
       <r>    -3.3159     0.0000     8.0000 </r>
       <r>    -3.2531     0.0000     8.0000 </r>
       <r>    -3.1904     0.0000     8.0000 </r>
       <r>    -3.1277     0.0000     8.0000 </r>
       <r>    -3.0649     0.0000     8.0000 </r>
       <r>    -3.0022     0.0000     8.0000 </r>
       <r>    -2.9395     0.0000     8.0000 </r>
       <r>    -2.8767     0.0000     8.0000 </r>
       <r>    -2.8140     0.0000     8.0000 </r>
       <r>    -2.7512     0.0000     8.0000 </r>
       <r>    -2.6885     0.0000     8.0000 </r>
       <r>    -2.6258     0.0000     8.0000 </r>
       <r>    -2.5630     0.0000     8.0000 </r>
       <r>    -2.5003     0.0000     8.0000 </r>
       <r>    -2.4376     0.0000     8.0000 </r>
       <r>    -2.3748     0.0000     8.0000 </r>
       <r>    -2.3121     0.0000     8.0000 </r>
       <r>    -2.2494     0.0000     8.0000 </r>
       <r>    -2.1866     0.0000     8.0000 </r>
       <r>    -2.1239     0.0000     8.0000 </r>
       <r>    -2.0612     0.0000     8.0000 </r>
       <r>    -1.9984     0.0000     8.0000 </r>
       <r>    -1.9357     0.0000     8.0000 </r>
       <r>    -1.8730     0.0000     8.0000 </r>
       <r>    -1.8102     0.0000     8.0000 </r>
       <r>    -1.7475     0.0000     8.0000 </r>
       <r>    -1.6848     0.0000     8.0000 </r>
       <r>    -1.6220     0.0000     8.0000 </r>
       <r>    -1.5593     0.0000     8.0000 </r>
       <r>    -1.4966     0.0000     8.0000 </r>
       <r>    -1.4338     0.0000     8.0000 </r>
       <r>    -1.3711     0.0000     8.0000 </r>
       <r>    -1.3084     0.0000     8.0000 </r>
       <r>    -1.2456     0.0000     8.0000 </r>
       <r>    -1.1829     0.0000     8.0000 </r>
       <r>    -1.1202     0.0000     8.0000 </r>
       <r>    -1.0574     0.0000     8.0000 </r>
       <r>    -0.9947     0.0000     8.0000 </r>
       <r>    -0.9319     0.0000     8.0000 </r>
       <r>    -0.8692     0.0000     8.0000 </r>
       <r>    -0.8065     0.0000     8.0000 </r>
       <r>    -0.7437     0.0000     8.0000 </r>
       <r>    -0.6810     0.0000     8.0000 </r>
       <r>    -0.6183     0.0000     8.0000 </r>
       <r>    -0.5555     0.0000     8.0000 </r>
       <r>    -0.4928    31.6474     9.9854 </r>
       <r>    -0.4301     0.2330    10.0000 </r>
       <r>    -0.3673     0.0000    10.0000 </r>
       <r>    -0.3046     0.0000    10.0000 </r>
       <r>    -0.2419     0.0000    10.0000 </r>
       <r>    -0.1791     0.0000    10.0000 </r>
       <r>    -0.1164     0.0000    10.0000 </r>
       <r>    -0.0537     0.0000    10.0000 </r>
       <r>     0.0091     0.0000    10.0000 </r>
       <r>     0.0718     0.0000    10.0000 </r>
       <r>     0.1345     1.0683    10.0670 </r>
       <r>     0.1973    30.8121    12.0000 </r>
       <r>     0.2600     0.0000    12.0000 </r>
       <r>     0.3227     0.0000    12.0000 </r>
       <r>     0.3855    27.0105    13.6945 </r>
       <r>     0.4482     4.8900    14.0013 </r>
       <r>     0.5109    31.8604    16.0000 </r>
       <r>     0.5737     0.0000    16.0000 </r>
       <r>     0.6364     0.0000    16.0000 </r>
       <r>     0.6991     0.0000    16.0000 </r>
       <r>     0.7619     0.0000    16.0000 </r>
       <r>     0.8246     0.0000    16.0000 </r>
       <r>     0.8874     0.0000    16.0000 </r>
       <r>     0.9501     0.0000    16.0000 </r>
       <r>     1.0128     0.0000    16.0000 </r>
       <r>     1.0756     0.0000    16.0000 </r>
       <r>     1.1383     0.0000    16.0000 </r>
       <r>     1.2010     0.0000    16.0000 </r>
       <r>     1.2638     0.0000    16.0000 </r>
       <r>     1.3265     0.0000    16.0000 </r>
      </set>
     </set>
    </array>
   </total>
  </dos>
 </calculation>
 <structure name="finalpos" >
  <crystal>
   <varray name="basis" >
    <v>      16.00000000       0.00000000       0.00000000 </v>
    <v>       0.00000000      16.00000000       0.00000000 </v>
    <v>       0.00000000       0.00000000      16.00000000 </v>
   </varray>
   <i name="volume">   4096.00000000 </i>
   <varray name="rec_basis" >
    <v>       0.06250000       0.00000000       0.00000000 </v>
    <v>       0.00000000       0.06250000       0.00000000 </v>
    <v>       0.00000000       0.00000000       0.06250000 </v>
   </varray>
  </crystal>
  <varray name="positions" >
   <v>       0.52115629       0.44589005       0.50000000 </v>
   <v>       0.52115629       0.55410995       0.50000000 </v>
   <v>       0.47631495       0.50000000       0.50000000 </v>
  </varray>
 </structure>
</modeling>
