unknown system                          
           1
    16.000000    0.000000    0.000000
     0.000000   16.000000    0.000000
     0.000000    0.000000   16.000000
   H    C 
   2   1
Direct configuration=     1
   0.51862754  0.45201832  0.50000000
   0.51862754  0.54798168  0.50000000
   0.48137246  0.50000000  0.50000000
Direct configuration=     2
   0.53015903  0.43611259  0.50000000
   0.53015903  0.56388741  0.50000000
   0.45830948  0.50000000  0.50000000
Direct configuration=     3
   0.52217068  0.44713116  0.50000000
   0.52217068  0.55286884  0.50000000
   0.47428617  0.50000000  0.50000000
Direct configuration=     4
   0.52193394  0.44745770  0.50000000
   0.52193394  0.55254230  0.50000000
   0.47475965  0.50000000  0.50000000
Direct configuration=     5
   0.52180793  0.44763152  0.50000000
   0.52180793  0.55236848  0.50000000
   0.47501168  0.50000000  0.50000000
Direct configuration=     6
   0.52181055  0.44762790  0.50000000
   0.52181055  0.55237210  0.50000000
   0.47500644  0.50000000  0.50000000
Direct configuration=     7
   0.52149670  0.44688286  0.50000000
   0.52149670  0.55311714  0.50000000
   0.47563414  0.50000000  0.50000000
Direct configuration=     8
   0.52111571  0.44597845  0.50000000
   0.52111571  0.55402155  0.50000000
   0.47639612  0.50000000  0.50000000
Direct configuration=     9
   0.52121491  0.44576237  0.50000000
   0.52121491  0.55423763  0.50000000
   0.47619771  0.50000000  0.50000000
Direct configuration=    10
   0.52115629  0.44589005  0.50000000
   0.52115629  0.55410995  0.50000000
   0.47631495  0.50000000  0.50000000
