 running on   48 total cores
 distrk:  each k-point on   48 cores,    1 groups
 distr:  one band on    6 cores,    8 groups
 using from now: INCAR     
 vasp.5.4.1 05Feb16 (build Feb 08 2018 09:21:51) complex                        
  
 POSCAR found :  5 types and     112 ions
 LDA part: xc-table for Pade appr. of Perdew
 POSCAR, INCAR and KPOINTS ok, starting setup
 WARNING: small aliasing (wrap around) errors must be expected
 FFT: planning ...
 WAVECAR not read
 entering main loop
       N       E                     dE             d eps       ncg     rms          rms(c)
DAV:   1     0.442378368712E+04    0.44238E+04   -0.24496E+05   760   0.116E+03
DAV:   2    -0.421888096761E+03   -0.48457E+04   -0.47480E+04   872   0.325E+02
DAV:   3    -0.976289486936E+03   -0.55440E+03   -0.55233E+03   816   0.119E+02
DAV:   4    -0.989250069164E+03   -0.12961E+02   -0.12922E+02   840   0.196E+01
DAV:   5    -0.989634531880E+03   -0.38446E+00   -0.38400E+00   824   0.306E+00    0.856E+01
DAV:   6    -0.873743003315E+03    0.11589E+03   -0.50668E+02   800   0.353E+01    0.397E+01
DAV:   7    -0.873217584009E+03    0.52542E+00   -0.16158E+01   912   0.596E+00    0.150E+01
DAV:   8    -0.872742111521E+03    0.47547E+00   -0.11046E+00   832   0.225E+00    0.601E+00
DAV:   9    -0.872602887082E+03    0.13922E+00   -0.44582E-01   832   0.145E+00    0.103E+00
DAV:  10    -0.872604022454E+03   -0.11354E-02   -0.83615E-02   808   0.628E-01    0.664E-01
DAV:  11    -0.872604898956E+03   -0.87650E-03   -0.19333E-02   784   0.292E-01    0.299E-01
DAV:  12    -0.872611329102E+03   -0.64301E-02   -0.70737E-03   776   0.218E-01    0.145E-01
DAV:  13    -0.872622735018E+03   -0.11406E-01   -0.45646E-03   808   0.193E-01    0.179E-01
DAV:  14    -0.872632063022E+03   -0.93280E-02   -0.27483E-03   800   0.129E-01    0.588E-02
DAV:  15    -0.872634161837E+03   -0.20988E-02   -0.53273E-04   832   0.547E-02    0.572E-02
DAV:  16    -0.872634702848E+03   -0.54101E-03   -0.16217E-04   816   0.277E-02    0.425E-02
DAV:  17    -0.872634909400E+03   -0.20655E-03   -0.73171E-05   800   0.165E-02    0.211E-02
DAV:  18    -0.872635321102E+03   -0.41170E-03   -0.39864E-05   768   0.112E-02    0.937E-03
DAV:  19    -0.872635356281E+03   -0.35179E-04   -0.10429E-05   768   0.784E-03    0.745E-03
DAV:  20    -0.872635371613E+03   -0.15332E-04   -0.37901E-06   688   0.409E-03    0.428E-03
DAV:  21    -0.872635392438E+03   -0.20825E-04   -0.16066E-06   544   0.257E-03    0.237E-03
DAV:  22    -0.872635397163E+03   -0.47247E-05   -0.12470E-06   528   0.235E-03    0.995E-04
DAV:  23    -0.872635397551E+03   -0.38811E-06   -0.30356E-07   520   0.114E-03
   1 F= -.87263540E+03 E0= -.87263540E+03  d E =-.872635E+03
 BRION: g(F)=  0.238E-02 g(S)=  0.000E+00
 bond charge predicted
       N       E                     dE             d eps       ncg     rms          rms(c)
DAV:   1    -0.872635632366E+03   -0.23520E-03   -0.38225E-01   736   0.124E+00    0.208E-01
DAV:   2    -0.872636352202E+03   -0.71984E-03   -0.94874E-03   824   0.180E-01    0.815E-02
DAV:   3    -0.872636219227E+03    0.13297E-03   -0.26578E-04   816   0.430E-02    0.474E-02
DAV:   4    -0.872636150903E+03    0.68324E-04   -0.22547E-04   808   0.431E-02    0.153E-02
DAV:   5    -0.872636149177E+03    0.17263E-05   -0.78965E-05   832   0.216E-02    0.179E-02
DAV:   6    -0.872636146068E+03    0.31082E-05   -0.14875E-05   800   0.911E-03    0.119E-02
DAV:   7    -0.872636142559E+03    0.35094E-05   -0.93452E-07   528   0.725E-03    0.663E-03
DAV:   8    -0.872636140814E+03    0.17452E-05   -0.50243E-06   696   0.105E-02    0.217E-03
DAV:   9    -0.872636142083E+03   -0.12691E-05   -0.38750E-06   664   0.645E-03    0.216E-03
DAV:  10    -0.872636142649E+03   -0.56644E-06   -0.11775E-06   520   0.233E-03
   2 F= -.87263614E+03 E0= -.87263614E+03  d E =-.745098E-03
 BRION: g(F)=  0.613E-02 g(S)=  0.000E+00 retain N=  1 mean eig= 0.31
 eig:   0.314
 bond charge predicted
       N       E                     dE             d eps       ncg     rms          rms(c)
DAV:   1    -0.872636882920E+03   -0.74084E-03   -0.10681E-01   720   0.648E-01    0.162E-01
DAV:   2    -0.872637045161E+03   -0.16224E-03   -0.32641E-03   816   0.112E-01    0.526E-02
DAV:   3    -0.872636952654E+03    0.92507E-04   -0.16005E-04   808   0.382E-02    0.288E-02
DAV:   4    -0.872636911935E+03    0.40719E-04   -0.98819E-05   816   0.326E-02    0.949E-03
DAV:   5    -0.872636910202E+03    0.17328E-05   -0.52682E-05   824   0.184E-02    0.173E-02
DAV:   6    -0.872636907510E+03    0.26921E-05   -0.51617E-06   728   0.651E-03    0.108E-02
DAV:   7    -0.872636904777E+03    0.27328E-05   -0.92683E-07   520   0.616E-03    0.561E-03
DAV:   8    -0.872636903885E+03    0.89176E-06   -0.40641E-06   672   0.853E-03
   3 F= -.87263690E+03 E0= -.87263690E+03  d E =-.761236E-03
 BRION: g(F)=  0.183E-02 g(S)=  0.000E+00 retain N=  1 mean eig= 0.22
 eig:   0.222
 bond charge predicted
       N       E                     dE             d eps       ncg     rms          rms(c)
DAV:   1    -0.872637346591E+03   -0.44181E-03   -0.13731E-01   720   0.743E-01    0.112E-01
DAV:   2    -0.872637605646E+03   -0.25905E-03   -0.32607E-03   808   0.106E-01    0.425E-02
DAV:   3    -0.872637567690E+03    0.37956E-04   -0.83819E-05   824   0.253E-02    0.252E-02
DAV:   4    -0.872637547347E+03    0.20343E-04   -0.72971E-05   808   0.274E-02    0.823E-03
DAV:   5    -0.872637548014E+03   -0.66667E-06   -0.32443E-05   816   0.130E-02    0.114E-02
DAV:   6    -0.872637547237E+03    0.77661E-06   -0.33479E-06   640   0.397E-03
   4 F= -.87263755E+03 E0= -.87263755E+03  d E =-.643352E-03
 BRION: g(F)=  0.128E-02 g(S)=  0.000E+00 retain N=  2 mean eig= 0.75
 eig:   0.175  1.321
 bond charge predicted
       N       E                     dE             d eps       ncg     rms          rms(c)
DAV:   1    -0.872637806677E+03   -0.25866E-03   -0.29005E-02   720   0.336E-01    0.610E-02
DAV:   2    -0.872637867677E+03   -0.61000E-04   -0.78621E-04   824   0.514E-02    0.236E-02
DAV:   3    -0.872637856440E+03    0.11237E-04   -0.20250E-05   808   0.120E-02    0.132E-02
DAV:   4    -0.872637852099E+03    0.43405E-05   -0.19778E-05   808   0.119E-02    0.369E-03
DAV:   5    -0.872637852319E+03   -0.21996E-06   -0.58612E-06   744   0.537E-03
   5 F= -.87263785E+03 E0= -.87263785E+03  d E =-.305082E-03
 BRION: g(F)=  0.679E-03 g(S)=  0.000E+00 retain N=  2 mean eig= 1.16
 eig:   0.241  2.075
 bond charge predicted
       N       E                     dE             d eps       ncg     rms          rms(c)
DAV:   1    -0.872638182160E+03   -0.33006E-03   -0.69949E-02   720   0.529E-01    0.579E-02
DAV:   2    -0.872638315910E+03   -0.13375E-03   -0.15232E-03   800   0.709E-02    0.268E-02
DAV:   3    -0.872638307219E+03    0.86904E-05   -0.28697E-05   824   0.121E-02    0.168E-02
DAV:   4    -0.872638302257E+03    0.49623E-05   -0.26917E-05   808   0.145E-02    0.490E-03
DAV:   5    -0.872638302648E+03   -0.39172E-06   -0.75643E-06   800   0.583E-03
   6 F= -.87263830E+03 E0= -.87263830E+03  d E =-.450329E-03
 BRION: g(F)=  0.598E-03 g(S)=  0.000E+00 retain N=  3 mean eig= 2.39
 eig:   6.736  0.265  0.169
 bond charge predicted
       N       E                     dE             d eps       ncg     rms          rms(c)
DAV:   1    -0.872638604730E+03   -0.30247E-03   -0.62005E-02   720   0.495E-01    0.539E-02
DAV:   2    -0.872638721800E+03   -0.11707E-03   -0.13511E-03   808   0.672E-02    0.262E-02
DAV:   3    -0.872638714179E+03    0.76213E-05   -0.27325E-05   816   0.120E-02    0.164E-02
DAV:   4    -0.872638710023E+03    0.41565E-05   -0.27804E-05   808   0.143E-02    0.556E-03
DAV:   5    -0.872638710186E+03   -0.16369E-06   -0.71153E-06   816   0.591E-03
   7 F= -.87263871E+03 E0= -.87263871E+03  d E =-.407538E-03
 BRION: g(F)=  0.612E-03 g(S)=  0.000E+00 retain N=  3 mean eig= 1.30
 eig:   3.161  0.192  0.548
 bond charge predicted
       N       E                     dE             d eps       ncg     rms          rms(c)
DAV:   1    -0.872638881870E+03   -0.17185E-03   -0.22312E-02   720   0.297E-01    0.488E-02
DAV:   2    -0.872638923466E+03   -0.41596E-04   -0.54549E-04   816   0.437E-02    0.179E-02
DAV:   3    -0.872638916800E+03    0.66668E-05   -0.15438E-05   824   0.103E-02    0.105E-02
DAV:   4    -0.872638913609E+03    0.31904E-05   -0.12014E-05   808   0.104E-02    0.319E-03
DAV:   5    -0.872638913713E+03   -0.10378E-06   -0.44844E-06   712   0.487E-03
   8 F= -.87263891E+03 E0= -.87263891E+03  d E =-.203527E-03
 BRION: g(F)=  0.661E-03 g(S)=  0.000E+00 retain N=  3 mean eig= 2.70
 eig:   7.856  0.191  0.061
 bond charge predicted
       N       E                     dE             d eps       ncg     rms          rms(c)
DAV:   1    -0.872639260985E+03   -0.34738E-03   -0.11498E-01   720   0.674E-01    0.703E-02
DAV:   2    -0.872639474789E+03   -0.21380E-03   -0.24349E-03   784   0.898E-02    0.346E-02
DAV:   3    -0.872639462036E+03    0.12752E-04   -0.47059E-05   832   0.153E-02    0.217E-02
DAV:   4    -0.872639454425E+03    0.76109E-05   -0.42918E-05   808   0.181E-02    0.646E-03
DAV:   5    -0.872639455018E+03   -0.59297E-06   -0.12205E-05   808   0.749E-03    0.685E-03
DAV:   6    -0.872639454745E+03    0.27319E-06   -0.15392E-06   480   0.284E-03
   9 F= -.87263945E+03 E0= -.87263945E+03  d E =-.541032E-03
 BRION: g(F)=  0.591E-03 g(S)=  0.000E+00 retain N=  3 mean eig= 1.49
 eig:   3.923  0.328  0.230
 bond charge predicted
       N       E                     dE             d eps       ncg     rms          rms(c)
DAV:   1    -0.872639392319E+03    0.62700E-04   -0.81956E-03   720   0.179E-01    0.386E-02
DAV:   2    -0.872639408622E+03   -0.16303E-04   -0.23517E-04   832   0.287E-02    0.133E-02
DAV:   3    -0.872639403825E+03    0.47964E-05   -0.74957E-06   824   0.799E-03    0.712E-03
DAV:   4    -0.872639401910E+03    0.19155E-05   -0.61306E-06   800   0.769E-03    0.190E-03
DAV:   5    -0.872639401978E+03   -0.67907E-07   -0.26629E-06   608   0.385E-03
  10 F= -.87263940E+03 E0= -.87263940E+03  d E =0.527674E-04
 BRION: g(F)=  0.509E-03 g(S)=  0.000E+00 retain N=  3 mean eig= 2.27
 eig:   6.581  0.112  0.112
 bond charge predicted
       N       E                     dE             d eps       ncg     rms          rms(c)
DAV:   1    -0.872639684075E+03   -0.28217E-03   -0.54573E-02   720   0.461E-01    0.470E-02
DAV:   2    -0.872639783799E+03   -0.99724E-04   -0.11282E-03   792   0.609E-02    0.244E-02
DAV:   3    -0.872639777961E+03    0.58383E-05   -0.21465E-05   832   0.100E-02    0.153E-02
DAV:   4    -0.872639774744E+03    0.32166E-05   -0.21317E-05   808   0.121E-02    0.461E-03
DAV:   5    -0.872639774911E+03   -0.16740E-06   -0.50310E-06   728   0.490E-03
  11 F= -.87263977E+03 E0= -.87263977E+03  d E =-.372934E-03
 BRION: g(F)=  0.449E-03 g(S)=  0.000E+00 retain N=  3 mean eig= 1.53
 eig:   4.213  0.342  0.045
 bond charge predicted
       N       E                     dE             d eps       ncg     rms          rms(c)
DAV:   1    -0.872639948750E+03   -0.17401E-03   -0.17512E-02   720   0.263E-01    0.339E-02
DAV:   2    -0.872639981660E+03   -0.32910E-04   -0.39203E-04   792   0.365E-02    0.143E-02
DAV:   3    -0.872639978796E+03    0.28644E-05   -0.86631E-06   832   0.718E-03    0.876E-03
DAV:   4    -0.872639977256E+03    0.15400E-05   -0.76924E-06   752   0.829E-03    0.268E-03
DAV:   5    -0.872639977353E+03   -0.97592E-07   -0.25353E-06   592   0.356E-03
  12 F= -.87263998E+03 E0= -.87263998E+03  d E =-.202442E-03
 BRION: g(F)=  0.419E-03 g(S)=  0.000E+00 retain N=  3 mean eig= 2.03
 eig:   5.768  0.163  0.163
 bond charge predicted
       N       E                     dE             d eps       ncg     rms          rms(c)
DAV:   1    -0.872640147357E+03   -0.17010E-03   -0.17265E-02   720   0.261E-01    0.336E-02
DAV:   2    -0.872640179537E+03   -0.32180E-04   -0.38393E-04   792   0.360E-02    0.144E-02
DAV:   3    -0.872640176701E+03    0.28362E-05   -0.87776E-06   832   0.702E-03    0.874E-03
DAV:   4    -0.872640175238E+03    0.14624E-05   -0.70450E-06   768   0.749E-03    0.254E-03
DAV:   5    -0.872640175332E+03   -0.93474E-07   -0.20772E-06   560   0.323E-03
  13 F= -.87264018E+03 E0= -.87264018E+03  d E =-.197979E-03
 BRION: g(F)=  0.407E-03 g(S)=  0.000E+00 retain N=  3 mean eig= 1.83
 eig:   4.979  0.300  0.224
 bond charge predicted
       N       E                     dE             d eps       ncg     rms          rms(c)
DAV:   1    -0.872640473136E+03   -0.29790E-03   -0.78450E-02   704   0.552E-01    0.551E-02
DAV:   2    -0.872640615500E+03   -0.14236E-03   -0.16064E-03   784   0.726E-02    0.290E-02
DAV:   3    -0.872640607938E+03    0.75619E-05   -0.30455E-05   832   0.120E-02    0.184E-02
DAV:   4    -0.872640603688E+03    0.42502E-05   -0.30243E-05   808   0.150E-02    0.567E-03
DAV:   5    -0.872640603957E+03   -0.26917E-06   -0.76285E-06   800   0.594E-03
  14 F= -.87264060E+03 E0= -.87264060E+03  d E =-.428625E-03
 BRION: g(F)=  0.397E-03 g(S)=  0.000E+00 retain N=  3 mean eig= 2.15
 eig:   6.111  0.295  0.048
 bond charge predicted
       N       E                     dE             d eps       ncg     rms          rms(c)
DAV:   1    -0.872640610517E+03   -0.68288E-05   -0.33893E-03   720   0.114E-01    0.280E-02
DAV:   2    -0.872640616314E+03   -0.57973E-05   -0.10048E-04   832   0.190E-02    0.900E-03
DAV:   3    -0.872640613921E+03    0.23931E-05   -0.37391E-06   712   0.580E-03    0.477E-03
DAV:   4    -0.872640613057E+03    0.86405E-06   -0.31347E-06   656   0.535E-03
  15 F= -.87264061E+03 E0= -.87264061E+03  d E =-.909977E-05
 BRION: g(F)=  0.424E-03 g(S)=  0.000E+00 retain N=  3 mean eig= 1.48
 eig:   3.965  0.243  0.243
 bond charge predicted
       N       E                     dE             d eps       ncg     rms          rms(c)
DAV:   1    -0.872640804121E+03   -0.19020E-03   -0.22060E-02   704   0.295E-01    0.339E-02
DAV:   2    -0.872640845865E+03   -0.41744E-04   -0.47639E-04   784   0.397E-02    0.160E-02
DAV:   3    -0.872640842934E+03    0.29316E-05   -0.92750E-06   824   0.695E-03    0.993E-03
DAV:   4    -0.872640841336E+03    0.15974E-05   -0.87567E-06   784   0.862E-03    0.280E-03
DAV:   5    -0.872640841454E+03   -0.11783E-06   -0.25672E-06   576   0.349E-03
  16 F= -.87264084E+03 E0= -.87264084E+03  d E =-.228397E-03
 BRION: g(F)=  0.351E-03 g(S)=  0.000E+00 retain N=  3 mean eig= 1.70
 eig:   4.518  0.427  0.157
 bond charge predicted
       N       E                     dE             d eps       ncg     rms          rms(c)
DAV:   1    -0.872641016628E+03   -0.17529E-03   -0.18824E-02   704   0.270E-01    0.313E-02
DAV:   2    -0.872641050653E+03   -0.34025E-04   -0.39612E-04   792   0.363E-02    0.149E-02
DAV:   3    -0.872641048261E+03    0.23913E-05   -0.83426E-06   832   0.661E-03    0.917E-03
DAV:   4    -0.872641047051E+03    0.12107E-05   -0.77131E-06   760   0.759E-03    0.281E-03
DAV:   5    -0.872641047099E+03   -0.48138E-07   -0.19331E-06   528   0.317E-03
  17 F= -.87264105E+03 E0= -.87264105E+03  d E =-.205645E-03
 BRION: g(F)=  0.342E-03 g(S)=  0.000E+00 retain N=  3 mean eig= 2.39
 eig:   6.794  0.192  0.192
 bond charge predicted
       N       E                     dE             d eps       ncg     rms          rms(c)
DAV:   1    -0.872641191579E+03   -0.14453E-03   -0.12640E-02   704   0.220E-01    0.273E-02
DAV:   2    -0.872641214260E+03   -0.22682E-04   -0.26862E-04   792   0.300E-02    0.125E-02
DAV:   3    -0.872641212384E+03    0.18766E-05   -0.59324E-06   800   0.580E-03    0.766E-03
DAV:   4    -0.872641211471E+03    0.91218E-06   -0.56401E-06   744   0.668E-03
  18 F= -.87264121E+03 E0= -.87264121E+03  d E =-.164372E-03
 BRION: g(F)=  0.320E-03 g(S)=  0.000E+00 retain N=  3 mean eig= 1.03
 eig:   2.481  0.334  0.281
 bond charge predicted
       N       E                     dE             d eps       ncg     rms          rms(c)
DAV:   1    -0.872641428340E+03   -0.21596E-03   -0.33415E-02   704   0.359E-01    0.400E-02
DAV:   2    -0.872641488519E+03   -0.60179E-04   -0.69384E-04   784   0.478E-02    0.200E-02
DAV:   3    -0.872641484647E+03    0.38717E-05   -0.14167E-05   832   0.837E-03    0.124E-02
DAV:   4    -0.872641482713E+03    0.19337E-05   -0.13624E-05   776   0.101E-02    0.369E-03
DAV:   5    -0.872641482844E+03   -0.13057E-06   -0.34589E-06   632   0.405E-03
  19 F= -.87264148E+03 E0= -.87264148E+03  d E =-.271373E-03
 BRION: g(F)=  0.360E-03 g(S)=  0.000E+00 retain N=  2 mean eig= 0.96
 eig:   0.207  1.721
 bond charge predicted
       N       E                     dE             d eps       ncg     rms          rms(c)
DAV:   1    -0.872641565193E+03   -0.82479E-04   -0.51291E-03   720   0.142E-01    0.256E-02
DAV:   2    -0.872641574725E+03   -0.95318E-05   -0.12990E-04   816   0.214E-02    0.904E-03
DAV:   3    -0.872641572975E+03    0.17500E-05   -0.38530E-06   752   0.528E-03    0.521E-03
DAV:   4    -0.872641572166E+03    0.80901E-06   -0.27868E-06   640   0.523E-03
  20 F= -.87264157E+03 E0= -.87264157E+03  d E =-.893217E-04
 BRION: g(F)=  0.327E-03 g(S)=  0.000E+00 retain N=  2 mean eig= 0.59
 eig:   0.147  1.038
 bond charge predicted
       N       E                     dE             d eps       ncg     rms          rms(c)
DAV:   1    -0.872641680804E+03   -0.10783E-03   -0.64449E-03   704   0.155E-01    0.196E-02
DAV:   2    -0.872641692172E+03   -0.11368E-04   -0.13471E-04   800   0.212E-02    0.942E-03
DAV:   3    -0.872641691156E+03    0.10164E-05   -0.27344E-06   616   0.393E-03    0.565E-03
DAV:   4    -0.872641690745E+03    0.41102E-06   -0.29052E-06   624   0.458E-03
  21 F= -.87264169E+03 E0= -.87264169E+03  d E =-.118579E-03
 BRION: g(F)=  0.269E-03 g(S)=  0.000E+00 retain N=  2 mean eig= 1.20
 eig:   0.227  2.177
 bond charge predicted
       N       E                     dE             d eps       ncg     rms          rms(c)
DAV:   1    -0.872641910538E+03   -0.21938E-03   -0.34406E-02   704   0.363E-01    0.362E-02
DAV:   2    -0.872641971975E+03   -0.61437E-04   -0.68787E-04   776   0.471E-02    0.200E-02
DAV:   3    -0.872641968825E+03    0.31496E-05   -0.12494E-05   824   0.750E-03    0.126E-02
DAV:   4    -0.872641967256E+03    0.15698E-05   -0.13381E-05   784   0.997E-03    0.372E-03
DAV:   5    -0.872641967329E+03   -0.73043E-07   -0.30954E-06   592   0.383E-03
  22 F= -.87264197E+03 E0= -.87264197E+03  d E =-.276584E-03
 BRION: g(F)=  0.293E-03 g(S)=  0.000E+00 retain N=  3 mean eig= 1.98
 eig:   5.538  0.264  0.148
 bond charge predicted
       N       E                     dE             d eps       ncg     rms          rms(c)
DAV:   1    -0.872642131575E+03   -0.16432E-03   -0.16878E-02   704   0.253E-01    0.280E-02
DAV:   2    -0.872642161824E+03   -0.30249E-04   -0.34585E-04   776   0.336E-02    0.142E-02
DAV:   3    -0.872642160022E+03    0.18020E-05   -0.67588E-06   776   0.581E-03    0.878E-03
DAV:   4    -0.872642159159E+03    0.86291E-06   -0.69310E-06   744   0.711E-03
  23 F= -.87264216E+03 E0= -.87264216E+03  d E =-.191830E-03
 BRION: g(F)=  0.281E-03 g(S)=  0.000E+00 retain N=  3 mean eig= 0.83
 eig:   1.636  0.352  0.488
 bond charge predicted
       N       E                     dE             d eps       ncg     rms          rms(c)
DAV:   1    -0.872642210502E+03   -0.50480E-04   -0.37585E-03   704   0.120E-01    0.263E-02
DAV:   2    -0.872642216059E+03   -0.55573E-05   -0.98505E-05   832   0.191E-02    0.878E-03
DAV:   3    -0.872642213882E+03    0.21772E-05   -0.44180E-06   784   0.614E-03    0.495E-03
DAV:   4    -0.872642212908E+03    0.97375E-06   -0.28370E-06   664   0.539E-03
  24 F= -.87264221E+03 E0= -.87264221E+03  d E =-.537491E-04
 BRION: g(F)=  0.351E-03 g(S)=  0.000E+00 retain N=  2 mean eig= 0.58
 eig:   0.270  0.895
 bond charge predicted
       N       E                     dE             d eps       ncg     rms          rms(c)
DAV:   1    -0.872642390315E+03   -0.17643E-03   -0.19515E-02   704   0.271E-01    0.319E-02
DAV:   2    -0.872642424309E+03   -0.33994E-04   -0.39552E-04   784   0.361E-02    0.160E-02
DAV:   3    -0.872642421654E+03    0.26557E-05   -0.81418E-06   816   0.650E-03    0.973E-03
DAV:   4    -0.872642420469E+03    0.11846E-05   -0.79465E-06   752   0.768E-03    0.262E-03
DAV:   5    -0.872642420557E+03   -0.88221E-07   -0.20579E-06   544   0.312E-03
  25 F= -.87264242E+03 E0= -.87264242E+03  d E =-.207649E-03
 BRION: g(F)=  0.295E-03 g(S)=  0.000E+00 retain N=  3 mean eig= 2.16
 eig:   6.091  0.199  0.199
 bond charge predicted
       N       E                     dE             d eps       ncg     rms          rms(c)
DAV:   1    -0.872642538966E+03   -0.11850E-03   -0.77004E-03   704   0.172E-01    0.205E-02
DAV:   2    -0.872642553022E+03   -0.14056E-04   -0.16289E-04   776   0.232E-02    0.997E-03
DAV:   3    -0.872642552078E+03    0.94400E-06   -0.31570E-06   640   0.418E-03
  26 F= -.87264255E+03 E0= -.87264255E+03  d E =-.131521E-03
 BRION: g(F)=  0.270E-03 g(S)=  0.000E+00 retain N=  3 mean eig= 2.16
 eig:   6.130  0.171  0.171
 bond charge predicted
       N       E                     dE             d eps       ncg     rms          rms(c)
DAV:   1    -0.872642506232E+03    0.46790E-04   -0.10901E-03   704   0.655E-02    0.873E-03
DAV:   2    -0.872642508679E+03   -0.24472E-05   -0.28452E-05   800   0.979E-03    0.441E-03
DAV:   3    -0.872642508372E+03    0.30625E-06   -0.51773E-07   488   0.204E-03
  27 F= -.87264251E+03 E0= -.87264251E+03  d E =0.437053E-04
 BRION: g(F)=  0.259E-03 g(S)=  0.000E+00 retain N=  3 mean eig= 1.23
 eig:   0.301  0.301  3.081
 bond charge predicted
       N       E                     dE             d eps       ncg     rms          rms(c)
DAV:   1    -0.872642752211E+03   -0.24353E-03   -0.51502E-02   704   0.442E-01    0.418E-02
DAV:   2    -0.872642843952E+03   -0.91742E-04   -0.10174E-03   768   0.570E-02    0.246E-02
DAV:   3    -0.872642839131E+03    0.48215E-05   -0.17388E-05   816   0.872E-03    0.155E-02
DAV:   4    -0.872642836807E+03    0.23243E-05   -0.21025E-05   808   0.118E-02    0.468E-03
DAV:   5    -0.872642836825E+03   -0.18066E-07   -0.44581E-06   688   0.459E-03
  28 F= -.87264284E+03 E0= -.87264284E+03  d E =-.328452E-03
 BRION: g(F)=  0.254E-03 g(S)=  0.000E+00 retain N=  4 mean eig= 1.48
 eig:   4.266  0.603  0.603  0.452
 bond charge predicted
       N       E                     dE             d eps       ncg     rms          rms(c)
DAV:   1    -0.872642986257E+03   -0.14945E-03   -0.16314E-02   704   0.245E-01    0.289E-02
DAV:   2    -0.872643014303E+03   -0.28045E-04   -0.32400E-04   784   0.325E-02    0.142E-02
DAV:   3    -0.872643012306E+03    0.19963E-05   -0.63695E-06   760   0.585E-03    0.862E-03
DAV:   4    -0.872643011395E+03    0.91167E-06   -0.66401E-06   744   0.741E-03
  29 F= -.87264301E+03 E0= -.87264301E+03  d E =-.174570E-03
 BRION: g(F)=  0.266E-03 g(S)=  0.000E+00 retain N=  4 mean eig= 1.22
 eig:   3.304  0.601  0.601  0.386
 bond charge predicted
       N       E                     dE             d eps       ncg     rms          rms(c)
DAV:   1    -0.872643268220E+03   -0.25591E-03   -0.41557E-01   704   0.125E+00    0.123E-01
DAV:   2    -0.872643983281E+03   -0.71506E-03   -0.80197E-03   776   0.160E-01    0.717E-02
DAV:   3    -0.872643945188E+03    0.38093E-04   -0.14526E-04   816   0.251E-02    0.447E-02
DAV:   4    -0.872643927900E+03    0.17289E-04   -0.15711E-04   808   0.324E-02    0.126E-02
DAV:   5    -0.872643928397E+03   -0.49704E-06   -0.33893E-05   800   0.125E-02    0.118E-02
DAV:   6    -0.872643927305E+03    0.10913E-05   -0.88120E-06   776   0.639E-03    0.599E-03
DAV:   7    -0.872643926911E+03    0.39476E-06   -0.14289E-06   528   0.273E-03
  30 F= -.87264393E+03 E0= -.87264393E+03  d E =-.915516E-03
 BRION: g(F)=  0.403E-03 g(S)=  0.000E+00 retain N=  3 mean eig= 2.25
 eig:   5.985  0.330  0.440
 bond charge predicted
       N       E                     dE             d eps       ncg     rms          rms(c)
DAV:   1    -0.872644070043E+03   -0.14274E-03   -0.21326E-02   704   0.287E-01    0.465E-02
DAV:   2    -0.872644108447E+03   -0.38404E-04   -0.49226E-04   808   0.412E-02    0.182E-02
DAV:   3    -0.872644102384E+03    0.60628E-05   -0.12954E-05   808   0.928E-03    0.107E-02
DAV:   4    -0.872644099934E+03    0.24501E-05   -0.11598E-05   792   0.945E-03    0.300E-03
DAV:   5    -0.872644100084E+03   -0.15023E-06   -0.38043E-06   688   0.431E-03
  31 F= -.87264410E+03 E0= -.87264410E+03  d E =-.173173E-03
 BRION: g(F)=  0.462E-03 g(S)=  0.000E+00 retain N=  3 mean eig= 0.70
 eig:   1.643  0.159  0.300
 bond charge predicted
       N       E                     dE             d eps       ncg     rms          rms(c)
DAV:   1    -0.872642975427E+03    0.11245E-02   -0.26786E-01   704   0.100E+00    0.100E-01
DAV:   2    -0.872643437464E+03   -0.46204E-03   -0.51890E-03   776   0.129E-01    0.574E-02
DAV:   3    -0.872643410845E+03    0.26619E-04   -0.93805E-05   808   0.202E-02    0.358E-02
DAV:   4    -0.872643398327E+03    0.12518E-04   -0.10123E-04   808   0.262E-02    0.973E-03
DAV:   5    -0.872643398839E+03   -0.51245E-06   -0.22907E-05   800   0.102E-02    0.943E-03
DAV:   6    -0.872643398192E+03    0.64749E-06   -0.47229E-06   704   0.464E-03
  32 F= -.87264340E+03 E0= -.87264340E+03  d E =0.701892E-03
 BRION: g(F)=  0.256E-03 g(S)=  0.000E+00 retain N=  2 mean eig= 0.75
 eig:   0.257  1.246
 bond charge predicted
       N       E                     dE             d eps       ncg     rms          rms(c)
DAV:   1    -0.872643688336E+03   -0.28950E-03   -0.10469E-01   704   0.622E-01    0.617E-02
DAV:   2    -0.872643861632E+03   -0.17330E-03   -0.19537E-03   760   0.789E-02    0.358E-02
DAV:   3    -0.872643850576E+03    0.11056E-04   -0.35513E-05   816   0.124E-02    0.221E-02
DAV:   4    -0.872643845358E+03    0.52179E-05   -0.37404E-05   800   0.160E-02    0.561E-03
DAV:   5    -0.872643845667E+03   -0.30900E-06   -0.87927E-06   800   0.617E-03
  33 F= -.87264385E+03 E0= -.87264385E+03  d E =-.447475E-03
 BRION: g(F)=  0.294E-03 g(S)=  0.000E+00 retain N=  3 mean eig= 0.63
 eig:   1.278  0.251  0.363
 bond charge predicted
       N       E                     dE             d eps       ncg     rms          rms(c)
DAV:   1    -0.872643958575E+03   -0.11322E-03   -0.70693E-03   704   0.165E-01    0.234E-02
DAV:   2    -0.872643971755E+03   -0.13180E-04   -0.16241E-04   792   0.234E-02    0.102E-02
DAV:   3    -0.872643970624E+03    0.11309E-05   -0.39054E-06   720   0.478E-03    0.618E-03
DAV:   4    -0.872643970156E+03    0.46854E-06   -0.37912E-06   704   0.531E-03
  34 F= -.87264397E+03 E0= -.87264397E+03  d E =-.124488E-03
 BRION: g(F)=  0.223E-03 g(S)=  0.000E+00 retain N=  1 mean eig= 0.25
 eig:   0.253
 bond charge predicted
       N       E                     dE             d eps       ncg     rms          rms(c)
DAV:   1    -0.872644122208E+03   -0.15158E-03   -0.17117E-02   704   0.252E-01    0.335E-02
DAV:   2    -0.872644151285E+03   -0.29077E-04   -0.35267E-04   784   0.344E-02    0.160E-02
DAV:   3    -0.872644148326E+03    0.29586E-05   -0.82498E-06   832   0.703E-03    0.961E-03
DAV:   4    -0.872644146934E+03    0.13921E-05   -0.77520E-06   760   0.824E-03    0.274E-03
DAV:   5    -0.872644146994E+03   -0.60492E-07   -0.24675E-06   600   0.355E-03
  35 F= -.87264415E+03 E0= -.87264415E+03  d E =-.176839E-03
 BRION: g(F)=  0.308E-03 g(S)=  0.000E+00 retain N=  2 mean eig= 0.16
 eig:   0.238  0.079
 bond charge predicted
       N       E                     dE             d eps       ncg     rms          rms(c)
DAV:   1    -0.872644208050E+03   -0.61116E-04   -0.23857E-03   704   0.948E-02    0.176E-02
DAV:   2    -0.872644211790E+03   -0.37394E-05   -0.56519E-05   808   0.143E-02    0.673E-03
DAV:   3    -0.872644210839E+03    0.95023E-06   -0.17834E-06   528   0.373E-03
  36 F= -.87264421E+03 E0= -.87264421E+03  d E =-.638450E-04
 BRION: g(F)=  0.215E-03 g(S)=  0.000E+00 retain N=  1 mean eig= 0.25
 eig:   0.246
 bond charge predicted
       N       E                     dE             d eps       ncg     rms          rms(c)
DAV:   1    -0.872644385910E+03   -0.17412E-03   -0.22515E-02   704   0.289E-01    0.322E-02
DAV:   2    -0.872644423566E+03   -0.37656E-04   -0.43211E-04   776   0.373E-02    0.175E-02
DAV:   3    -0.872644420948E+03    0.26183E-05   -0.85414E-06   792   0.636E-03    0.106E-02
DAV:   4    -0.872644419815E+03    0.11332E-05   -0.80560E-06   768   0.751E-03    0.268E-03
DAV:   5    -0.872644419857E+03   -0.41859E-07   -0.19242E-06   504   0.311E-03
  37 F= -.87264442E+03 E0= -.87264442E+03  d E =-.209017E-03
 BRION: g(F)=  0.249E-03 g(S)=  0.000E+00 retain N=  2 mean eig= 0.21
 eig:   0.319  0.099
 bond charge predicted
       N       E                     dE             d eps       ncg     rms          rms(c)
DAV:   1    -0.872644476317E+03   -0.56502E-04   -0.21602E-03   704   0.893E-02    0.158E-02
DAV:   2    -0.872644479791E+03   -0.34740E-05   -0.48856E-05   808   0.131E-02    0.606E-03
DAV:   3    -0.872644479105E+03    0.68588E-06   -0.13493E-06   528   0.321E-03
  38 F= -.87264448E+03 E0= -.87264448E+03  d E =-.592486E-04
 BRION: g(F)=  0.208E-03 g(S)=  0.000E+00 retain N=  1 mean eig= 0.23
 eig:   0.231
 bond charge predicted
       N       E                     dE             d eps       ncg     rms          rms(c)
DAV:   1    -0.872644647267E+03   -0.16748E-03   -0.19542E-02   704   0.267E-01    0.280E-02
DAV:   2    -0.872644679305E+03   -0.32038E-04   -0.36354E-04   776   0.340E-02    0.162E-02
DAV:   3    -0.872644677321E+03    0.19836E-05   -0.67874E-06   744   0.554E-03    0.979E-03
DAV:   4    -0.872644676466E+03    0.85474E-06   -0.67840E-06   752   0.696E-03
  39 F= -.87264468E+03 E0= -.87264468E+03  d E =-.197361E-03
 BRION: g(F)=  0.205E-03 g(S)=  0.000E+00 retain N=  2 mean eig= 0.39
 eig:   0.181  0.597
 bond charge predicted
       N       E                     dE             d eps       ncg     rms          rms(c)
DAV:   1    -0.872644771379E+03   -0.94058E-04   -0.56783E-03   704   0.144E-01    0.220E-02
DAV:   2    -0.872644780637E+03   -0.92576E-05   -0.12068E-04   800   0.203E-02    0.984E-03
DAV:   3    -0.872644779331E+03    0.13053E-05   -0.32410E-06   640   0.478E-03    0.574E-03
DAV:   4    -0.872644778736E+03    0.59526E-06   -0.30068E-06   648   0.523E-03
  40 F= -.87264478E+03 E0= -.87264478E+03  d E =-.102270E-03
 BRION: g(F)=  0.241E-03 g(S)=  0.000E+00 retain N=  1 mean eig= 0.19
 eig:   0.189
 bond charge predicted
       N       E                     dE             d eps       ncg     rms          rms(c)
DAV:   1    -0.872644897419E+03   -0.11809E-03   -0.76555E-03   704   0.167E-01    0.203E-02
DAV:   2    -0.872644910207E+03   -0.12788E-04   -0.15003E-04   776   0.221E-02    0.107E-02
DAV:   3    -0.872644909205E+03    0.10013E-05   -0.30930E-06   632   0.405E-03    0.645E-03
DAV:   4    -0.872644908844E+03    0.36135E-06   -0.34125E-06   672   0.476E-03
  41 F= -.87264491E+03 E0= -.87264491E+03  d E =-.130108E-03
 BRION: g(F)=  0.208E-03 g(S)=  0.000E+00 retain N=  2 mean eig= 0.65
 eig:   0.152  1.141
 bond charge predicted
       N       E                     dE             d eps       ncg     rms          rms(c)
DAV:   1    -0.872644954342E+03   -0.45137E-04   -0.11651E-03   720   0.650E-02    0.980E-03
DAV:   2    -0.872644956200E+03   -0.18576E-05   -0.24563E-05   792   0.916E-03    0.439E-03
DAV:   3    -0.872644955965E+03    0.23506E-06   -0.64573E-07   488   0.207E-03
  42 F= -.87264496E+03 E0= -.87264496E+03  d E =-.471210E-04
 BRION: g(F)=  0.207E-03 g(S)=  0.000E+00 retain N=  2 mean eig= 1.19
 eig:   0.363  2.026
 bond charge predicted
       N       E                     dE             d eps       ncg     rms          rms(c)
DAV:   1    -0.872645135094E+03   -0.17889E-03   -0.24178E-02   704   0.296E-01    0.322E-02
DAV:   2    -0.872645174334E+03   -0.39240E-04   -0.44882E-04   776   0.378E-02    0.181E-02
DAV:   3    -0.872645171569E+03    0.27651E-05   -0.85233E-06   776   0.642E-03    0.109E-02
DAV:   4    -0.872645170349E+03    0.12203E-05   -0.86531E-06   760   0.817E-03    0.278E-03
DAV:   5    -0.872645170409E+03   -0.60238E-07   -0.22663E-06   552   0.328E-03
  43 F= -.87264517E+03 E0= -.87264517E+03  d E =-.214444E-03
 BRION: g(F)=  0.232E-03 g(S)=  0.000E+00 retain N=  2 mean eig= 0.71
 eig:   0.324  1.092
 bond charge predicted
       N       E                     dE             d eps       ncg     rms          rms(c)
DAV:   1    -0.872645228808E+03   -0.58459E-04   -0.22495E-03   704   0.918E-02    0.174E-02
DAV:   2    -0.872645232701E+03   -0.38929E-05   -0.56861E-05   800   0.142E-02    0.713E-03
DAV:   3    -0.872645231745E+03    0.95561E-06   -0.17302E-06   528   0.398E-03
  44 F= -.87264523E+03 E0= -.87264523E+03  d E =-.613365E-04
 BRION: g(F)=  0.245E-03 g(S)=  0.000E+00 retain N=  2 mean eig= 1.38
 eig:   0.248  2.517
 bond charge predicted
       N       E                     dE             d eps       ncg     rms          rms(c)
DAV:   1    -0.872645161562E+03    0.71139E-04   -0.29227E-03   704   0.103E-01    0.192E-02
DAV:   2    -0.872645166644E+03   -0.50814E-05   -0.69150E-05   792   0.154E-02    0.774E-03
DAV:   3    -0.872645165486E+03    0.11573E-05   -0.17751E-06   552   0.388E-03    0.451E-03
DAV:   4    -0.872645165015E+03    0.47096E-06   -0.26772E-06   608   0.447E-03
  45 F= -.87264517E+03 E0= -.87264517E+03  d E =0.667300E-04
 BRION: g(F)=  0.220E-03 g(S)=  0.000E+00 retain N=  2 mean eig= 0.30
 eig:   0.260  0.344
 bond charge predicted
       N       E                     dE             d eps       ncg     rms          rms(c)
DAV:   1    -0.872645345873E+03   -0.18039E-03   -0.23899E-02   704   0.294E-01    0.305E-02
DAV:   2    -0.872645384814E+03   -0.38941E-04   -0.44122E-04   760   0.373E-02    0.179E-02
DAV:   3    -0.872645382178E+03    0.26363E-05   -0.79673E-06   760   0.594E-03    0.108E-02
DAV:   4    -0.872645381117E+03    0.10604E-05   -0.87938E-06   760   0.748E-03    0.272E-03
DAV:   5    -0.872645381152E+03   -0.35136E-07   -0.18171E-06   504   0.290E-03
  46 F= -.87264538E+03 E0= -.87264538E+03  d E =-.216137E-03
 BRION: g(F)=  0.210E-03 g(S)=  0.000E+00 retain N=  3 mean eig= 0.28
 eig:   0.420  0.064  0.370
 bond charge predicted
       N       E                     dE             d eps       ncg     rms          rms(c)
DAV:   1    -0.872645461098E+03   -0.79981E-04   -0.34527E-03   704   0.113E-01    0.156E-02
DAV:   2    -0.872645467197E+03   -0.60986E-05   -0.73744E-05   792   0.156E-02    0.737E-03
DAV:   3    -0.872645466651E+03    0.54592E-06   -0.15023E-06   560   0.305E-03
  47 F= -.87264547E+03 E0= -.87264547E+03  d E =-.854984E-04
 BRION: g(F)=  0.208E-03 g(S)=  0.000E+00 retain N=  2 mean eig= 2.42
 eig:   0.346  4.492
 bond charge predicted
       N       E                     dE             d eps       ncg     rms          rms(c)
DAV:   1    -0.872645749025E+03   -0.28183E-03   -0.78886E-02   704   0.531E-01    0.561E-02
DAV:   2    -0.872645875016E+03   -0.12599E-03   -0.14308E-03   760   0.669E-02    0.330E-02
DAV:   3    -0.872645866982E+03    0.80343E-05   -0.26598E-05   816   0.108E-02    0.198E-02
DAV:   4    -0.872645863963E+03    0.30183E-05   -0.27495E-05   808   0.135E-02    0.502E-03
DAV:   5    -0.872645864073E+03   -0.10931E-06   -0.59948E-06   760   0.520E-03
  48 F= -.87264586E+03 E0= -.87264586E+03  d E =-.397422E-03
 BRION: g(F)=  0.235E-03 g(S)=  0.000E+00 retain N=  3 mean eig= 1.87
 eig:   4.966  0.247  0.399
 bond charge predicted
       N       E                     dE             d eps       ncg     rms          rms(c)
DAV:   1    -0.872646029700E+03   -0.16574E-03   -0.17174E-02   704   0.250E-01    0.288E-02
DAV:   2    -0.872646059274E+03   -0.29574E-04   -0.33802E-04   776   0.328E-02    0.155E-02
DAV:   3    -0.872646057627E+03    0.16471E-05   -0.64489E-06   744   0.564E-03    0.936E-03
DAV:   4    -0.872646057038E+03    0.58905E-06   -0.67563E-06   752   0.685E-03
  49 F= -.87264606E+03 E0= -.87264606E+03  d E =-.192965E-03
 BRION: g(F)=  0.197E-03 g(S)=  0.000E+00 retain N=  3 mean eig= 1.74
 eig:   4.549  0.237  0.431
 bond charge predicted
       N       E                     dE             d eps       ncg     rms          rms(c)
DAV:   1    -0.872646155179E+03   -0.97552E-04   -0.88004E-03   704   0.178E-01    0.315E-02
DAV:   2    -0.872646168835E+03   -0.13657E-04   -0.19190E-04   800   0.258E-02    0.127E-02
DAV:   3    -0.872646166030E+03    0.28049E-05   -0.59595E-06   800   0.639E-03    0.737E-03
DAV:   4    -0.872646164860E+03    0.11704E-05   -0.53761E-06   744   0.655E-03    0.214E-03
DAV:   5    -0.872646164901E+03   -0.41138E-07   -0.16288E-06   528   0.291E-03
  50 F= -.87264616E+03 E0= -.87264616E+03  d E =-.107864E-03
 BRION: g(F)=  0.327E-03 g(S)=  0.000E+00 retain N=  2 mean eig= 0.24
 eig:   0.388  0.089
 bond charge predicted
       N       E                     dE             d eps       ncg     rms          rms(c)
DAV:   1    -0.872646249300E+03   -0.84440E-04   -0.47319E-03   704   0.131E-01    0.234E-02
DAV:   2    -0.872646256884E+03   -0.75844E-05   -0.10495E-04   808   0.191E-02    0.931E-03
DAV:   3    -0.872646255297E+03    0.15878E-05   -0.30500E-06   632   0.459E-03    0.530E-03
DAV:   4    -0.872646254747E+03    0.54976E-06   -0.32566E-06   696   0.472E-03
  51 F= -.87264625E+03 E0= -.87264625E+03  d E =-.898457E-04
 BRION: g(F)=  0.221E-03 g(S)=  0.000E+00 retain N=  3 mean eig= 1.67
 eig:   0.426  0.097  4.473
 bond charge predicted
       N       E                     dE             d eps       ncg     rms          rms(c)
DAV:   1    -0.872646319810E+03   -0.64514E-04   -0.20232E-03   704   0.859E-02    0.125E-02
DAV:   2    -0.872646323183E+03   -0.33722E-05   -0.42798E-05   792   0.120E-02    0.606E-03
DAV:   3    -0.872646322782E+03    0.40037E-06   -0.99565E-07   520   0.251E-03
  52 F= -.87264632E+03 E0= -.87264632E+03  d E =-.680355E-04
 BRION: g(F)=  0.201E-03 g(S)=  0.000E+00 retain N=  2 mean eig= 0.56
 eig:   0.248  0.871
 bond charge predicted
       N       E                     dE             d eps       ncg     rms          rms(c)
DAV:   1    -0.872646481414E+03   -0.15823E-03   -0.18902E-02   704   0.263E-01    0.331E-02
DAV:   2    -0.872646512656E+03   -0.31241E-04   -0.37058E-04   784   0.347E-02    0.167E-02
DAV:   3    -0.872646509741E+03    0.29143E-05   -0.80505E-06   808   0.687E-03    0.987E-03
DAV:   4    -0.872646508300E+03    0.14416E-05   -0.65046E-06   752   0.777E-03    0.230E-03
DAV:   5    -0.872646508389E+03   -0.89909E-07   -0.23823E-06   576   0.345E-03
  53 F= -.87264651E+03 E0= -.87264651E+03  d E =-.185607E-03
 BRION: g(F)=  0.287E-03 g(S)=  0.000E+00 retain N=  3 mean eig= 0.48
 eig:   0.934  0.249  0.249
 bond charge predicted
       N       E                     dE             d eps       ncg     rms          rms(c)
DAV:   1    -0.872646553194E+03   -0.44895E-04   -0.17517E-03   704   0.813E-02    0.174E-02
DAV:   2    -0.872646555852E+03   -0.26574E-05   -0.45572E-05   816   0.131E-02    0.633E-03
DAV:   3    -0.872646554879E+03    0.97257E-06   -0.17841E-06   520   0.417E-03
  54 F= -.87264655E+03 E0= -.87264655E+03  d E =-.464898E-04
 BRION: g(F)=  0.196E-03 g(S)=  0.000E+00 retain N=  1 mean eig= 0.24
 eig:   0.239
 bond charge predicted
       N       E                     dE             d eps       ncg     rms          rms(c)
DAV:   1    -0.872646713858E+03   -0.15801E-03   -0.19772E-02   704   0.265E-01    0.322E-02
DAV:   2    -0.872646745162E+03   -0.31304E-04   -0.36755E-04   792   0.343E-02    0.170E-02
DAV:   3    -0.872646742308E+03    0.28545E-05   -0.72262E-06   776   0.617E-03    0.100E-02
DAV:   4    -0.872646741198E+03    0.11096E-05   -0.75649E-06   752   0.748E-03    0.244E-03
DAV:   5    -0.872646741258E+03   -0.60107E-07   -0.19735E-06   512   0.305E-03
  55 F= -.87264674E+03 E0= -.87264674E+03  d E =-.186379E-03
 BRION: g(F)=  0.252E-03 g(S)=  0.000E+00 retain N=  2 mean eig= 0.22
 eig:   0.244  0.198
 bond charge predicted
       N       E                     dE             d eps       ncg     rms          rms(c)
DAV:   1    -0.872646787699E+03   -0.46501E-04   -0.11709E-03   704   0.669E-02    0.131E-02
DAV:   2    -0.872646789611E+03   -0.19118E-05   -0.29954E-05   816   0.105E-02    0.502E-03
DAV:   3    -0.872646789139E+03    0.47174E-06   -0.10385E-06   504   0.274E-03
  56 F= -.87264679E+03 E0= -.87264679E+03  d E =-.478813E-04
 BRION: g(F)=  0.198E-03 g(S)=  0.000E+00 retain N=  1 mean eig= 0.24
 eig:   0.240
 bond charge predicted
       N       E                     dE             d eps       ncg     rms          rms(c)
DAV:   1    -0.872646961856E+03   -0.17225E-03   -0.18389E-02   704   0.255E-01    0.275E-02
DAV:   2    -0.872646991119E+03   -0.29262E-04   -0.33356E-04   768   0.322E-02    0.164E-02
DAV:   3    -0.872646989215E+03    0.19037E-05   -0.62349E-06   736   0.524E-03    0.972E-03
DAV:   4    -0.872646988526E+03    0.68884E-06   -0.61914E-06   744   0.621E-03
  57 F= -.87264699E+03 E0= -.87264699E+03  d E =-.199387E-03
 BRION: g(F)=  0.194E-03 g(S)=  0.000E+00 retain N=  2 mean eig= 0.32
 eig:   0.099  0.547
 bond charge predicted
       N       E                     dE             d eps       ncg     rms          rms(c)
DAV:   1    -0.872647090395E+03   -0.10118E-03   -0.56970E-03   704   0.141E-01    0.209E-02
DAV:   2    -0.872647099541E+03   -0.91458E-05   -0.11489E-04   792   0.195E-02    0.100E-02
DAV:   3    -0.872647098430E+03    0.11101E-05   -0.27335E-06   616   0.463E-03    0.586E-03
DAV:   4    -0.872647097954E+03    0.47620E-06   -0.31012E-06   656   0.560E-03
  58 F= -.87264710E+03 E0= -.87264710E+03  d E =-.109428E-03
 BRION: g(F)=  0.224E-03 g(S)=  0.000E+00 retain N=  2 mean eig= 2.42
 eig:   0.449  4.399
 bond charge predicted
       N       E                     dE             d eps       ncg     rms          rms(c)
DAV:   1    -0.872647293577E+03   -0.19515E-03   -0.22871E-02   704   0.281E-01    0.340E-02
DAV:   2    -0.872647329250E+03   -0.35673E-04   -0.41605E-04   784   0.361E-02    0.189E-02
DAV:   3    -0.872647326338E+03    0.29114E-05   -0.81764E-06   776   0.644E-03    0.111E-02
DAV:   4    -0.872647325403E+03    0.93537E-06   -0.87159E-06   760   0.763E-03
  59 F= -.87264733E+03 E0= -.87264733E+03  d E =-.227449E-03
 BRION: g(F)=  0.226E-03 g(S)=  0.000E+00 retain N=  2 mean eig= 0.10
 eig:   0.075  0.128
 bond charge predicted
       N       E                     dE             d eps       ncg     rms          rms(c)
DAV:   1    -0.872647263955E+03    0.62384E-04   -0.24423E-03   704   0.940E-02    0.158E-02
DAV:   2    -0.872647267382E+03   -0.34277E-05   -0.49551E-05   800   0.133E-02    0.675E-03
DAV:   3    -0.872647266550E+03    0.83209E-06   -0.14322E-06   536   0.330E-03
  60 F= -.87264727E+03 E0= -.87264727E+03  d E =0.588529E-04
 BRION: g(F)=  0.205E-03 g(S)=  0.000E+00 retain N=  2 mean eig= 4.01
 eig:   0.380  7.643
 bond charge predicted
       N       E                     dE             d eps       ncg     rms          rms(c)
DAV:   1    -0.872647458219E+03   -0.19084E-03   -0.23853E-02   704   0.290E-01    0.324E-02
DAV:   2    -0.872647497333E+03   -0.39114E-04   -0.44707E-04   784   0.374E-02    0.186E-02
DAV:   3    -0.872647494390E+03    0.29436E-05   -0.81433E-06   776   0.631E-03    0.111E-02
DAV:   4    -0.872647493143E+03    0.12464E-05   -0.81192E-06   744   0.741E-03    0.257E-03
DAV:   5    -0.872647493185E+03   -0.42055E-07   -0.19660E-06   536   0.310E-03
  61 F= -.87264749E+03 E0= -.87264749E+03  d E =-.226635E-03
 BRION: g(F)=  0.243E-03 g(S)=  0.000E+00 retain N=  2 mean eig= 0.20
 eig:   0.243  0.163
 bond charge predicted
       N       E                     dE             d eps       ncg     rms          rms(c)
DAV:   1    -0.872647579682E+03   -0.86539E-04   -0.37203E-03   704   0.114E-01    0.181E-02
DAV:   2    -0.872647585703E+03   -0.60212E-05   -0.77564E-05   800   0.162E-02    0.836E-03
DAV:   3    -0.872647584820E+03    0.88318E-06   -0.18805E-06   560   0.410E-03
  62 F= -.87264758E+03 E0= -.87264758E+03  d E =-.916346E-04
 BRION: g(F)=  0.225E-03 g(S)=  0.000E+00 retain N=  2 mean eig= 2.09
 eig:   0.273  3.906
 bond charge predicted
       N       E                     dE             d eps       ncg     rms          rms(c)
DAV:   1    -0.872647388959E+03    0.19674E-03   -0.12651E-02   704   0.207E-01    0.259E-02
DAV:   2    -0.872647409178E+03   -0.20218E-04   -0.23614E-04   784   0.271E-02    0.148E-02
DAV:   3    -0.872647407260E+03    0.19177E-05   -0.45137E-06   704   0.503E-03    0.872E-03
DAV:   4    -0.872647406636E+03    0.62362E-06   -0.54333E-06   728   0.578E-03
  63 F= -.87264741E+03 E0= -.87264741E+03  d E =0.178184E-03
 BRION: g(F)=  0.222E-03 g(S)=  0.000E+00 retain N=  2 mean eig= 0.23
 eig:   0.352  0.102
 bond charge predicted
       N       E                     dE             d eps       ncg     rms          rms(c)
DAV:   1    -0.872647635405E+03   -0.22814E-03   -0.36345E-02   704   0.356E-01    0.385E-02
DAV:   2    -0.872647692143E+03   -0.56738E-04   -0.64650E-04   768   0.446E-02    0.231E-02
DAV:   3    -0.872647687672E+03    0.44708E-05   -0.11197E-05   784   0.724E-03    0.136E-02
DAV:   4    -0.872647686159E+03    0.15135E-05   -0.13021E-05   800   0.887E-03    0.324E-03
DAV:   5    -0.872647686192E+03   -0.33506E-07   -0.26266E-06   576   0.344E-03
  64 F= -.87264769E+03 E0= -.87264769E+03  d E =-.279556E-03
 BRION: g(F)=  0.226E-03 g(S)=  0.000E+00 retain N=  3 mean eig= 0.45
 eig:   0.231  0.561  0.561
 bond charge predicted
       N       E                     dE             d eps       ncg     rms          rms(c)
DAV:   1    -0.872647851347E+03   -0.16519E-03   -0.12808E-02   704   0.211E-01    0.283E-02
DAV:   2    -0.872647872570E+03   -0.21223E-04   -0.25210E-04   784   0.283E-02    0.153E-02
DAV:   3    -0.872647870849E+03    0.17213E-05   -0.54408E-06   752   0.536E-03    0.888E-03
DAV:   4    -0.872647870246E+03    0.60274E-06   -0.49714E-06   720   0.563E-03
  65 F= -.87264787E+03 E0= -.87264787E+03  d E =-.184054E-03
 BRION: g(F)=  0.252E-03 g(S)=  0.000E+00 retain N=  4 mean eig= 1.71
 eig:   6.273  0.257  0.257  0.033
 bond charge predicted
       N       E                     dE             d eps       ncg     rms          rms(c)
DAV:   1    -0.872648317086E+03   -0.44624E-03   -0.24257E-01   704   0.903E-01    0.105E-01
DAV:   2    -0.872648683208E+03   -0.36612E-03   -0.42095E-03   776   0.113E-01    0.633E-02
DAV:   3    -0.872648655629E+03    0.27579E-04   -0.77796E-05   816   0.188E-02    0.365E-02
DAV:   4    -0.872648648597E+03    0.70321E-05   -0.83655E-05   800   0.217E-02    0.868E-03
DAV:   5    -0.872648648514E+03    0.83339E-07   -0.15155E-05   808   0.831E-03    0.787E-03
DAV:   6    -0.872648648061E+03    0.45302E-06   -0.35934E-06   672   0.410E-03
  66 F= -.87264865E+03 E0= -.87264865E+03  d E =-.777814E-03
 BRION: g(F)=  0.260E-03 g(S)=  0.000E+00 retain N=  2 mean eig= 0.17
 eig:   0.132  0.210
 bond charge predicted
       N       E                     dE             d eps       ncg     rms          rms(c)
DAV:   1    -0.872647988350E+03    0.66016E-03   -0.10388E-01   704   0.590E-01    0.740E-02
DAV:   2    -0.872648141923E+03   -0.15357E-03   -0.18074E-03   784   0.746E-02    0.428E-02
DAV:   3    -0.872648127059E+03    0.14865E-04   -0.35454E-05   816   0.136E-02    0.244E-02
DAV:   4    -0.872648122829E+03    0.42299E-05   -0.39001E-05   792   0.158E-02    0.576E-03
DAV:   5    -0.872648122923E+03   -0.94537E-07   -0.87182E-06   816   0.627E-03
  67 F= -.87264812E+03 E0= -.87264812E+03  d E =0.525137E-03
 BRION: g(F)=  0.369E-03 g(S)=  0.000E+00 retain N=  3 mean eig= 0.52
 eig:   0.335  0.335  0.885
 bond charge predicted
       N       E                     dE             d eps       ncg     rms          rms(c)
DAV:   1    -0.872648155817E+03   -0.32989E-04   -0.16084E-03   704   0.792E-02    0.200E-02
DAV:   2    -0.872648157506E+03   -0.16881E-05   -0.46861E-05   832   0.138E-02    0.696E-03
DAV:   3    -0.872648156078E+03    0.14279E-05   -0.26675E-06   552   0.465E-03    0.370E-03
DAV:   4    -0.872648155538E+03    0.53938E-06   -0.17666E-06   536   0.372E-03
  68 F= -.87264816E+03 E0= -.87264816E+03  d E =-.326149E-04
 BRION: g(F)=  0.195E-03 g(S)=  0.000E+00 retain N=  2 mean eig= 2.64
 eig:   0.245  5.028
 bond charge predicted
       N       E                     dE             d eps       ncg     rms          rms(c)
DAV:   1    -0.872648332591E+03   -0.17651E-03   -0.19053E-02   704   0.258E-01    0.287E-02
DAV:   2    -0.872648362879E+03   -0.30288E-04   -0.34607E-04   784   0.327E-02    0.169E-02
DAV:   3    -0.872648360698E+03    0.21809E-05   -0.62393E-06   736   0.532E-03    0.995E-03
DAV:   4    -0.872648359950E+03    0.74777E-06   -0.66282E-06   744   0.620E-03
  69 F= -.87264836E+03 E0= -.87264836E+03  d E =-.204412E-03
 BRION: g(F)=  0.191E-03 g(S)=  0.000E+00 retain N=  3 mean eig= 1.92
 eig:   0.106  0.680  4.985
 bond charge predicted
       N       E                     dE             d eps       ncg     rms          rms(c)
DAV:   1    -0.872648480671E+03   -0.11997E-03   -0.80074E-03   704   0.167E-01    0.248E-02
DAV:   2    -0.872648493132E+03   -0.12461E-04   -0.15639E-04   792   0.226E-02    0.118E-02
DAV:   3    -0.872648491591E+03    0.15408E-05   -0.37687E-06   704   0.499E-03    0.688E-03
DAV:   4    -0.872648491028E+03    0.56288E-06   -0.39166E-06   704   0.566E-03
  70 F= -.87264849E+03 E0= -.87264849E+03  d E =-.131078E-03
 BRION: g(F)=  0.221E-03 g(S)=  0.000E+00 retain N=  1 mean eig= 0.18
 eig:   0.184
 bond charge predicted
       N       E                     dE             d eps       ncg     rms          rms(c)
DAV:   1    -0.872648587243E+03   -0.95652E-04   -0.42348E-03   704   0.121E-01    0.158E-02
DAV:   2    -0.872648593893E+03   -0.66499E-05   -0.81001E-05   784   0.162E-02    0.857E-03
DAV:   3    -0.872648593287E+03    0.60617E-06   -0.17613E-06   568   0.317E-03
  71 F= -.87264859E+03 E0= -.87264859E+03  d E =-.102259E-03
 BRION: g(F)=  0.198E-03 g(S)=  0.000E+00 retain N=  1 mean eig= 0.11
 eig:   0.114
 bond charge predicted
       N       E                     dE             d eps       ncg     rms          rms(c)
DAV:   1    -0.872648751212E+03   -0.15732E-03   -0.17193E-02   704   0.245E-01    0.311E-02
DAV:   2    -0.872648777358E+03   -0.26147E-04   -0.31086E-04   784   0.315E-02    0.162E-02
DAV:   3    -0.872648774937E+03    0.24210E-05   -0.69606E-06   784   0.587E-03    0.934E-03
DAV:   4    -0.872648774027E+03    0.91075E-06   -0.53531E-06   752   0.594E-03
  72 F= -.87264877E+03 E0= -.87264877E+03  d E =-.180740E-03
 BRION: g(F)=  0.245E-03 g(S)=  0.000E+00 retain N=  2 mean eig= 0.60
 eig:   0.349  0.857
 bond charge predicted
       N       E                     dE             d eps       ncg     rms          rms(c)
DAV:   1    -0.872648801975E+03   -0.27037E-04   -0.12540E-03   728   0.697E-02    0.172E-02
DAV:   2    -0.872648804104E+03   -0.21293E-05   -0.39564E-05   824   0.121E-02    0.637E-03
DAV:   3    -0.872648803112E+03    0.99171E-06   -0.15090E-06   512   0.378E-03
  73 F= -.87264880E+03 E0= -.87264880E+03  d E =-.290858E-04
 BRION: g(F)=  0.226E-03 g(S)=  0.000E+00 retain N=  2 mean eig= 1.98
 eig:   0.297  3.673
 bond charge predicted
       N       E                     dE             d eps       ncg     rms          rms(c)
DAV:   1    -0.872648827229E+03   -0.23125E-04   -0.75953E-04   720   0.535E-02    0.112E-02
DAV:   2    -0.872648828626E+03   -0.13969E-05   -0.20085E-05   816   0.837E-03    0.423E-03
DAV:   3    -0.872648828244E+03    0.38174E-06   -0.57495E-07   496   0.217E-03
  74 F= -.87264883E+03 E0= -.87264883E+03  d E =-.251318E-04
 BRION: g(F)=  0.199E-03 g(S)=  0.000E+00 retain N=  2 mean eig= 0.15
 eig:   0.291  0.016
 bond charge predicted
       N       E                     dE             d eps       ncg     rms          rms(c)
DAV:   1    -0.872648985653E+03   -0.15703E-03   -0.13462E-02   704   0.215E-01    0.237E-02
DAV:   2    -0.872649006524E+03   -0.20871E-04   -0.23820E-04   776   0.269E-02    0.145E-02
DAV:   3    -0.872649005006E+03    0.15178E-05   -0.41897E-06   688   0.443E-03    0.839E-03
DAV:   4    -0.872649004570E+03    0.43584E-06   -0.47922E-06   720   0.524E-03
  75 F= -.87264900E+03 E0= -.87264900E+03  d E =-.176326E-03
 BRION: g(F)=  0.190E-03 g(S)=  0.000E+00 retain N=  3 mean eig= 0.40
 eig:   0.081  0.368  0.745
 bond charge predicted
       N       E                     dE             d eps       ncg     rms          rms(c)
DAV:   1    -0.872649143378E+03   -0.13837E-03   -0.10500E-02   704   0.189E-01    0.263E-02
DAV:   2    -0.872649159866E+03   -0.16487E-04   -0.19859E-04   784   0.251E-02    0.136E-02
DAV:   3    -0.872649158205E+03    0.16602E-05   -0.44100E-06   720   0.507E-03    0.788E-03
DAV:   4    -0.872649157648E+03    0.55752E-06   -0.45359E-06   720   0.578E-03
  76 F= -.87264916E+03 E0= -.87264916E+03  d E =-.153077E-03
 BRION: g(F)=  0.236E-03 g(S)=  0.000E+00 retain N=  4 mean eig= 1.96
 eig:   6.995  0.055  0.388  0.388
 bond charge predicted
       N       E                     dE             d eps       ncg     rms          rms(c)
DAV:   1    -0.872649593366E+03   -0.43516E-03   -0.18665E-01   704   0.789E-01    0.920E-02
DAV:   2    -0.872649874599E+03   -0.28123E-03   -0.32361E-03   768   0.986E-02    0.562E-02
DAV:   3    -0.872649853471E+03    0.21127E-04   -0.59629E-05   808   0.164E-02    0.321E-02
DAV:   4    -0.872649848559E+03    0.49129E-05   -0.64610E-05   800   0.187E-02    0.787E-03
DAV:   5    -0.872649848361E+03    0.19760E-06   -0.11331E-05   816   0.718E-03    0.690E-03
DAV:   6    -0.872649847980E+03    0.38056E-06   -0.28148E-06   624   0.366E-03
  77 F= -.87264985E+03 E0= -.87264985E+03  d E =-.690333E-03
 BRION: g(F)=  0.245E-03 g(S)=  0.000E+00 retain N=  2 mean eig= 0.13
 eig:   0.068  0.188
 bond charge predicted
       N       E                     dE             d eps       ncg     rms          rms(c)
DAV:   1    -0.872649157000E+03    0.69136E-03   -0.11271E-01   704   0.613E-01    0.730E-02
DAV:   2    -0.872649324022E+03   -0.16702E-03   -0.19417E-03   768   0.766E-02    0.442E-02
DAV:   3    -0.872649309624E+03    0.14398E-04   -0.36513E-05   808   0.132E-02    0.251E-02
DAV:   4    -0.872649305885E+03    0.37387E-05   -0.40038E-05   808   0.153E-02    0.598E-03
DAV:   5    -0.872649305864E+03    0.21733E-07   -0.78041E-06   808   0.591E-03
  78 F= -.87264931E+03 E0= -.87264931E+03  d E =0.542117E-03
 BRION: g(F)=  0.268E-03 g(S)=  0.000E+00 retain N=  3 mean eig= 0.70
 eig:   0.399  0.399  1.302
 bond charge predicted
       N       E                     dE             d eps       ncg     rms          rms(c)
DAV:   1    -0.872649331049E+03   -0.25164E-04   -0.47613E-04   704   0.431E-02    0.985E-03
DAV:   2    -0.872649331476E+03   -0.42662E-06   -0.12832E-05   808   0.722E-03    0.395E-03
DAV:   3    -0.872649331085E+03    0.39063E-06   -0.71398E-07   504   0.230E-03
  79 F= -.87264933E+03 E0= -.87264933E+03  d E =-.252214E-04
 BRION: g(F)=  0.202E-03 g(S)=  0.000E+00 retain N=  2 mean eig= 1.17
 eig:   0.321  2.028
 bond charge predicted
       N       E                     dE             d eps       ncg     rms          rms(c)
DAV:   1    -0.872649529237E+03   -0.19776E-03   -0.22818E-02   704   0.281E-01    0.313E-02
DAV:   2    -0.872649564738E+03   -0.35501E-04   -0.40683E-04   768   0.352E-02    0.188E-02
DAV:   3    -0.872649562036E+03    0.27023E-05   -0.71951E-06   752   0.585E-03    0.110E-02
DAV:   4    -0.872649561169E+03    0.86676E-06   -0.82006E-06   760   0.703E-03
  80 F= -.87264956E+03 E0= -.87264956E+03  d E =-.230084E-03
 BRION: g(F)=  0.183E-03 g(S)=  0.000E+00 retain N=  3 mean eig= 1.19
 eig:   1.361  1.361  0.861
 bond charge predicted
       N       E                     dE             d eps       ncg     rms          rms(c)
DAV:   1    -0.872649722128E+03   -0.16009E-03   -0.14672E-02   704   0.222E-01    0.309E-02
DAV:   2    -0.872649744629E+03   -0.22501E-04   -0.27244E-04   784   0.293E-02    0.160E-02
DAV:   3    -0.872649742402E+03    0.22274E-05   -0.61252E-06   760   0.582E-03    0.924E-03
DAV:   4    -0.872649741684E+03    0.71727E-06   -0.58768E-06   744   0.646E-03
  81 F= -.87264974E+03 E0= -.87264974E+03  d E =-.180515E-03
 BRION: g(F)=  0.228E-03 g(S)=  0.000E+00 retain N=  2 mean eig= 1.26
 eig:   0.271  2.245
 bond charge predicted
       N       E                     dE             d eps       ncg     rms          rms(c)
DAV:   1    -0.872650018661E+03   -0.27626E-03   -0.50054E-02   704   0.410E-01    0.512E-02
DAV:   2    -0.872650094637E+03   -0.75976E-04   -0.89476E-04   784   0.526E-02    0.294E-02
DAV:   3    -0.872650088201E+03    0.64365E-05   -0.18399E-05   816   0.958E-03    0.169E-02
DAV:   4    -0.872650086346E+03    0.18552E-05   -0.18072E-05   808   0.104E-02    0.407E-03
DAV:   5    -0.872650086339E+03    0.62500E-08   -0.36939E-06   656   0.424E-03
  82 F= -.87265009E+03 E0= -.87265009E+03  d E =-.344655E-03
 BRION: g(F)=  0.275E-03 g(S)=  0.000E+00 retain N=  2 mean eig= 0.38
 eig:   0.220  0.549
 bond charge predicted
       N       E                     dE             d eps       ncg     rms          rms(c)
DAV:   1    -0.872649751235E+03    0.33511E-03   -0.36783E-02   704   0.351E-01    0.428E-02
DAV:   2    -0.872649804861E+03   -0.53626E-04   -0.63738E-04   768   0.443E-02    0.252E-02
DAV:   3    -0.872649799413E+03    0.54480E-05   -0.13315E-05   816   0.796E-03    0.144E-02
DAV:   4    -0.872649797758E+03    0.16547E-05   -0.12189E-05   784   0.810E-03    0.296E-03
DAV:   5    -0.872649797791E+03   -0.33258E-07   -0.24098E-06   576   0.337E-03
  83 F= -.87264980E+03 E0= -.87264980E+03  d E =0.288548E-03
 BRION: g(F)=  0.199E-03 g(S)=  0.000E+00 retain N=  2 mean eig= 1.18
 eig:   0.356  2.006
 bond charge predicted
       N       E                     dE             d eps       ncg     rms          rms(c)
DAV:   1    -0.872649973299E+03   -0.17554E-03   -0.21480E-02   704   0.274E-01    0.336E-02
DAV:   2    -0.872650007039E+03   -0.33740E-04   -0.39751E-04   784   0.354E-02    0.185E-02
DAV:   3    -0.872650003621E+03    0.34182E-05   -0.79322E-06   792   0.632E-03    0.107E-02
DAV:   4    -0.872650002305E+03    0.13161E-05   -0.78470E-06   760   0.713E-03    0.244E-03
DAV:   5    -0.872650002345E+03   -0.39865E-07   -0.18272E-06   496   0.299E-03
  84 F= -.87265000E+03 E0= -.87265000E+03  d E =-.204554E-03
 BRION: g(F)=  0.247E-03 g(S)=  0.000E+00 retain N=  3 mean eig= 0.98
 eig:   2.196  0.379  0.379
 bond charge predicted
       N       E                     dE             d eps       ncg     rms          rms(c)
DAV:   1    -0.872650072529E+03   -0.70224E-04   -0.27896E-03   704   0.101E-01    0.188E-02
DAV:   2    -0.872650077456E+03   -0.49265E-05   -0.67041E-05   800   0.152E-02    0.782E-03
DAV:   3    -0.872650076431E+03    0.10244E-05   -0.17084E-06   544   0.380E-03    0.443E-03
DAV:   4    -0.872650076067E+03    0.36418E-06   -0.22828E-06   552   0.437E-03
  85 F= -.87265008E+03 E0= -.87265008E+03  d E =-.737221E-04
 BRION: g(F)=  0.202E-03 g(S)=  0.000E+00 retain N=  1 mean eig= 0.24
 eig:   0.237
 bond charge predicted
       N       E                     dE             d eps       ncg     rms          rms(c)
DAV:   1    -0.872650200423E+03   -0.12399E-03   -0.15390E-02   704   0.234E-01    0.379E-02
DAV:   2    -0.872650224693E+03   -0.24270E-04   -0.32024E-04   800   0.330E-02    0.165E-02
DAV:   3    -0.872650220438E+03    0.42550E-05   -0.91214E-06   808   0.800E-03    0.942E-03
DAV:   4    -0.872650218436E+03    0.20013E-05   -0.66848E-06   752   0.802E-03    0.235E-03
DAV:   5    -0.872650218469E+03   -0.32356E-07   -0.28070E-06   608   0.393E-03
  86 F= -.87265022E+03 E0= -.87265022E+03  d E =-.142402E-03
 BRION: g(F)=  0.358E-03 g(S)=  0.000E+00 retain N=  2 mean eig= 0.20
 eig:   0.198  0.198
 bond charge predicted
       N       E                     dE             d eps       ncg     rms          rms(c)
DAV:   1    -0.872650278537E+03   -0.60100E-04   -0.25083E-03   704   0.986E-02    0.221E-02
DAV:   2    -0.872650282430E+03   -0.38931E-05   -0.69632E-05   832   0.162E-02    0.791E-03
DAV:   3    -0.872650280812E+03    0.16178E-05   -0.28388E-06   576   0.503E-03    0.435E-03
DAV:   4    -0.872650280172E+03    0.63953E-06   -0.24422E-06   584   0.470E-03
  87 F= -.87265028E+03 E0= -.87265028E+03  d E =-.617035E-04
 BRION: g(F)=  0.177E-03 g(S)=  0.000E+00 retain N=  1 mean eig= 0.23
 eig:   0.228
 bond charge predicted
       N       E                     dE             d eps       ncg     rms          rms(c)
DAV:   1    -0.872650436128E+03   -0.15532E-03   -0.14080E-02   704   0.220E-01    0.249E-02
DAV:   2    -0.872650458137E+03   -0.22009E-04   -0.25314E-04   776   0.278E-02    0.150E-02
DAV:   3    -0.872650456495E+03    0.16417E-05   -0.44896E-06   680   0.462E-03    0.870E-03
DAV:   4    -0.872650456000E+03    0.49547E-06   -0.51326E-06   720   0.560E-03
  88 F= -.87265046E+03 E0= -.87265046E+03  d E =-.175827E-03
 BRION: g(F)=  0.175E-03 g(S)=  0.000E+00 retain N=  2 mean eig= 0.40
 eig:   0.244  0.556
 bond charge predicted
       N       E                     dE             d eps       ncg     rms          rms(c)
DAV:   1    -0.872650544619E+03   -0.88124E-04   -0.47339E-03   704   0.127E-01    0.199E-02
DAV:   2    -0.872650551931E+03   -0.73127E-05   -0.93741E-05   800   0.175E-02    0.923E-03
DAV:   3    -0.872650550979E+03    0.95255E-06   -0.23509E-06   592   0.385E-03
  89 F= -.87265055E+03 E0= -.87265055E+03  d E =-.949792E-04
 BRION: g(F)=  0.193E-03 g(S)=  0.000E+00 retain N=  1 mean eig= 0.18
 eig:   0.184
 bond charge predicted
       N       E                     dE             d eps       ncg     rms          rms(c)
DAV:   1    -0.872650653142E+03   -0.10121E-03   -0.50975E-03   704   0.132E-01    0.159E-02
DAV:   2    -0.872650660525E+03   -0.73828E-05   -0.86909E-05   776   0.163E-02    0.934E-03
DAV:   3    -0.872650659951E+03    0.57433E-06   -0.17196E-06   592   0.286E-03
  90 F= -.87265066E+03 E0= -.87265066E+03  d E =-.108972E-03
 BRION: g(F)=  0.183E-03 g(S)=  0.000E+00 retain N=  2 mean eig= 0.16
 eig:   0.173  0.156
 bond charge predicted
       N       E                     dE             d eps       ncg     rms          rms(c)
DAV:   1    -0.872650688866E+03   -0.28342E-04   -0.36175E-04   720   0.351E-02    0.473E-03
DAV:   2    -0.872650689320E+03   -0.45351E-06   -0.55066E-06   696   0.417E-03
  91 F= -.87265069E+03 E0= -.87265069E+03  d E =-.293694E-04
 BRION: g(F)=  0.178E-03 g(S)=  0.000E+00 retain N=  3 mean eig= 1.49
 eig:   0.324  2.077  2.077
 bond charge predicted
       N       E                     dE             d eps       ncg     rms          rms(c)
DAV:   1    -0.872651089772E+03   -0.40091E-03   -0.29870E-01   704   0.101E+00    0.113E-01
DAV:   2    -0.872651546179E+03   -0.45641E-03   -0.52353E-03   760   0.126E-01    0.698E-02
DAV:   3    -0.872651512139E+03    0.34040E-04   -0.93724E-05   800   0.204E-02    0.401E-02
DAV:   4    -0.872651503777E+03    0.83615E-05   -0.10407E-04   808   0.236E-02    0.994E-03
DAV:   5    -0.872651503491E+03    0.28622E-06   -0.18026E-05   800   0.906E-03    0.868E-03
DAV:   6    -0.872651502869E+03    0.62207E-06   -0.53563E-06   720   0.502E-03
  92 F= -.87265150E+03 E0= -.87265150E+03  d E =-.813549E-03
 BRION: g(F)=  0.247E-03 g(S)=  0.000E+00 retain N=  3 mean eig= 0.68
 eig:   0.930  0.930  0.166
 bond charge predicted
       N       E                     dE             d eps       ncg     rms          rms(c)
DAV:   1    -0.872651366387E+03    0.13710E-03   -0.75364E-03   704   0.163E-01    0.190E-02
DAV:   2    -0.872651378001E+03   -0.11614E-04   -0.13760E-04   784   0.207E-02    0.113E-02
DAV:   3    -0.872651376941E+03    0.10603E-05   -0.28008E-06   624   0.367E-03    0.662E-03
DAV:   4    -0.872651376600E+03    0.34067E-06   -0.29306E-06   608   0.416E-03
  93 F= -.87265138E+03 E0= -.87265138E+03  d E =0.126269E-03
 BRION: g(F)=  0.210E-03 g(S)=  0.000E+00 retain N=  1 mean eig= 0.33
 eig:   0.327
 bond charge predicted
       N       E                     dE             d eps       ncg     rms          rms(c)
DAV:   1    -0.872651505717E+03   -0.12878E-03   -0.26695E-02   704   0.309E-01    0.518E-02
DAV:   2    -0.872651546887E+03   -0.41171E-04   -0.55172E-04   800   0.433E-02    0.214E-02
DAV:   3    -0.872651538816E+03    0.80718E-05   -0.15169E-05   824   0.105E-02    0.121E-02
DAV:   4    -0.872651535521E+03    0.32940E-05   -0.12383E-05   800   0.106E-02    0.283E-03
DAV:   5    -0.872651535737E+03   -0.21541E-06   -0.51451E-06   720   0.501E-03
  94 F= -.87265154E+03 E0= -.87265154E+03  d E =-.159137E-03
 BRION: g(F)=  0.542E-03 g(S)=  0.000E+00 retain N=  2 mean eig= 0.28
 eig:   0.324  0.231
 bond charge predicted
       N       E                     dE             d eps       ncg     rms          rms(c)
DAV:   1    -0.872651619405E+03   -0.83883E-04   -0.44946E-03   704   0.131E-01    0.328E-02
DAV:   2    -0.872651625191E+03   -0.57865E-05   -0.13036E-04   832   0.223E-02    0.109E-02
DAV:   3    -0.872651621882E+03    0.33094E-05   -0.73419E-06   816   0.726E-03    0.607E-03
DAV:   4    -0.872651620703E+03    0.11786E-05   -0.35591E-06   704   0.501E-03    0.197E-03
DAV:   5    -0.872651620653E+03    0.49731E-07   -0.11350E-06   512   0.301E-03
  95 F= -.87265162E+03 E0= -.87265162E+03  d E =-.849165E-04
 BRION: g(F)=  0.174E-03 g(S)=  0.000E+00 retain N=  1 mean eig= 0.22
 eig:   0.220
 bond charge predicted
       N       E                     dE             d eps       ncg     rms          rms(c)
DAV:   1    -0.872651767345E+03   -0.14664E-03   -0.12292E-02   704   0.206E-01    0.247E-02
DAV:   2    -0.872651787241E+03   -0.19896E-04   -0.23040E-04   776   0.265E-02    0.145E-02
DAV:   3    -0.872651785728E+03    0.15129E-05   -0.43269E-06   680   0.459E-03    0.849E-03
DAV:   4    -0.872651785284E+03    0.44425E-06   -0.52181E-06   752   0.536E-03
  96 F= -.87265179E+03 E0= -.87265179E+03  d E =-.164630E-03
 BRION: g(F)=  0.186E-03 g(S)=  0.000E+00 retain N=  2 mean eig= 0.28
 eig:   0.284  0.284
 bond charge predicted
       N       E                     dE             d eps       ncg     rms          rms(c)
DAV:   1    -0.872651846497E+03   -0.60769E-04   -0.28170E-03   704   0.948E-02    0.163E-02
DAV:   2    -0.872651850300E+03   -0.38030E-05   -0.52400E-05   808   0.130E-02    0.732E-03
DAV:   3    -0.872651849593E+03    0.70713E-06   -0.14167E-06   544   0.307E-03
  97 F= -.87265185E+03 E0= -.87265185E+03  d E =-.643089E-04
 BRION: g(F)=  0.175E-03 g(S)=  0.000E+00 retain N=  1 mean eig= 0.22
 eig:   0.219
 bond charge predicted
       N       E                     dE             d eps       ncg     rms          rms(c)
DAV:   1    -0.872651977786E+03   -0.12749E-03   -0.85534E-03   704   0.170E-01    0.200E-02
DAV:   2    -0.872651990356E+03   -0.12570E-04   -0.14547E-04   760   0.209E-02    0.120E-02
DAV:   3    -0.872651989398E+03    0.95834E-06   -0.26794E-06   624   0.344E-03
  98 F= -.87265199E+03 E0= -.87265199E+03  d E =-.139805E-03
 BRION: g(F)=  0.175E-03 g(S)=  0.000E+00 retain N=  2 mean eig= 0.55
 eig:   0.254  0.843
 bond charge predicted
       N       E                     dE             d eps       ncg     rms          rms(c)
DAV:   1    -0.872651922554E+03    0.67803E-04   -0.18249E-03   704   0.773E-02    0.909E-03
DAV:   2    -0.872651925570E+03   -0.30163E-05   -0.35454E-05   784   0.104E-02    0.592E-03
DAV:   3    -0.872651925220E+03    0.34986E-06   -0.58658E-07   528   0.195E-03
  99 F= -.87265193E+03 E0= -.87265193E+03  d E =0.641778E-04
 BRION: g(F)=  0.186E-03 g(S)=  0.000E+00 retain N=  3 mean eig= 2.82
 eig:   7.978  0.242  0.242
 bond charge predicted
       N       E                     dE             d eps       ncg     rms          rms(c)
DAV:   1    -0.872651212849E+03    0.71272E-03   -0.12903E-01   704   0.650E-01    0.760E-02
DAV:   2    -0.872651398522E+03   -0.18567E-03   -0.21490E-03   768   0.800E-02    0.465E-02
DAV:   3    -0.872651383213E+03    0.15309E-04   -0.40161E-05   808   0.132E-02    0.260E-02
DAV:   4    -0.872651379639E+03    0.35742E-05   -0.39647E-05   808   0.145E-02    0.566E-03
DAV:   5    -0.872651379654E+03   -0.14887E-07   -0.70049E-06   768   0.547E-03
 100 F= -.87265138E+03 E0= -.87265138E+03  d E =0.545567E-03
 BRION: g(F)=  0.209E-03 g(S)=  0.000E+00 retain N=  3 mean eig= 0.72
 eig:   0.562  0.799  0.799
 bond charge predicted
       N       E                     dE             d eps       ncg     rms          rms(c)
DAV:   1    -0.872651829423E+03   -0.44978E-03   -0.44770E-01   704   0.121E+00    0.140E-01
DAV:   2    -0.872652477851E+03   -0.64843E-03   -0.75176E-03   768   0.149E-01    0.874E-02
DAV:   3    -0.872652421819E+03    0.56032E-04   -0.13839E-04   800   0.246E-02    0.490E-02
DAV:   4    -0.872652408465E+03    0.13354E-04   -0.14332E-04   808   0.267E-02    0.109E-02
DAV:   5    -0.872652408294E+03    0.17049E-06   -0.24073E-05   800   0.102E-02    0.958E-03
DAV:   6    -0.872652407549E+03    0.74564E-06   -0.60550E-06   728   0.530E-03
 101 F= -.87265241E+03 E0= -.87265241E+03  d E =-.102790E-02
 BRION: g(F)=  0.200E-03 g(S)=  0.000E+00 retain N=  3 mean eig= 0.29
 eig:   0.368  0.368  0.145
 bond charge predicted
       N       E                     dE             d eps       ncg     rms          rms(c)
DAV:   1    -0.872652460653E+03   -0.52358E-04   -0.15157E-03   704   0.703E-02    0.105E-02
DAV:   2    -0.872652463230E+03   -0.25772E-05   -0.29495E-05   808   0.949E-03    0.527E-03
DAV:   3    -0.872652463043E+03    0.18725E-06   -0.51811E-07   520   0.193E-03
 102 F= -.87265246E+03 E0= -.87265246E+03  d E =-.554941E-04
 BRION: g(F)=  0.179E-03 g(S)=  0.000E+00 retain N=  2 mean eig= 2.00
 eig:   0.205  3.793
 bond charge predicted
       N       E                     dE             d eps       ncg     rms          rms(c)
DAV:   1    -0.872652848348E+03   -0.38512E-03   -0.13280E-01   704   0.655E-01    0.767E-02
DAV:   2    -0.872653038525E+03   -0.19018E-03   -0.22043E-03   768   0.806E-02    0.476E-02
DAV:   3    -0.872653022830E+03    0.15695E-04   -0.41013E-05   808   0.134E-02    0.265E-02
DAV:   4    -0.872653019591E+03    0.32389E-05   -0.42724E-05   808   0.147E-02    0.621E-03
DAV:   5    -0.872653019482E+03    0.10895E-06   -0.70969E-06   760   0.560E-03
 103 F= -.87265302E+03 E0= -.87265302E+03  d E =-.556439E-03
 BRION: g(F)=  0.193E-03 g(S)=  0.000E+00 retain N=  3 mean eig= 1.86
 eig:   0.579  0.579  4.424
 bond charge predicted
       N       E                     dE             d eps       ncg     rms          rms(c)
DAV:   1    -0.872653130918E+03   -0.11133E-03   -0.57118E-03   704   0.140E-01    0.191E-02
DAV:   2    -0.872653140604E+03   -0.96861E-05   -0.11324E-04   792   0.187E-02    0.993E-03
DAV:   3    -0.872653140006E+03    0.59863E-06   -0.20376E-06   600   0.342E-03
 104 F= -.87265314E+03 E0= -.87265314E+03  d E =-.120524E-03
 BRION: g(F)=  0.175E-03 g(S)=  0.000E+00 retain N=  1 mean eig= 0.20
 eig:   0.199
 bond charge predicted
       N       E                     dE             d eps       ncg     rms          rms(c)
DAV:   1    -0.872653267286E+03   -0.12668E-03   -0.83605E-03   704   0.166E-01    0.207E-02
DAV:   2    -0.872653279057E+03   -0.11771E-04   -0.13964E-04   784   0.205E-02    0.119E-02
DAV:   3    -0.872653278145E+03    0.91176E-06   -0.30173E-06   632   0.366E-03
 105 F= -.87265328E+03 E0= -.87265328E+03  d E =-.138139E-03
 BRION: g(F)=  0.182E-03 g(S)=  0.000E+00 retain N=  2 mean eig= 0.21
 eig:   0.207  0.207
 bond charge predicted
       N       E                     dE             d eps       ncg     rms          rms(c)
DAV:   1    -0.872653313225E+03   -0.34169E-04   -0.48873E-04   720   0.406E-02    0.673E-03
DAV:   2    -0.872653313902E+03   -0.67647E-06   -0.86906E-06   792   0.528E-03
 106 F= -.87265331E+03 E0= -.87265331E+03  d E =-.357569E-04
 BRION: g(F)=  0.172E-03 g(S)=  0.000E+00 retain N=  3 mean eig= 1.85
 eig:   5.294  0.230  0.025
 bond charge predicted
       N       E                     dE             d eps       ncg     rms          rms(c)
DAV:   1    -0.872653462476E+03   -0.14925E-03   -0.10806E-02   704   0.188E-01    0.240E-02
DAV:   2    -0.872653478055E+03   -0.15579E-04   -0.18429E-04   784   0.234E-02    0.147E-02
DAV:   3    -0.872653476599E+03    0.14558E-05   -0.36121E-06   672   0.420E-03    0.801E-03
DAV:   4    -0.872653476408E+03    0.19064E-06   -0.40467E-06   664   0.444E-03
 107 F= -.87265348E+03 E0= -.87265348E+03  d E =-.162506E-03
 BRION: g(F)=  0.173E-03 g(S)=  0.000E+00 retain N=  2 mean eig= 0.49
 eig:   0.487  0.487
 bond charge predicted
       N       E                     dE             d eps       ncg     rms          rms(c)
DAV:   1    -0.872653596878E+03   -0.12028E-03   -0.76027E-03   704   0.154E-01    0.219E-02
DAV:   2    -0.872653607637E+03   -0.10758E-04   -0.13136E-04   792   0.200E-02    0.120E-02
DAV:   3    -0.872653606501E+03    0.11357E-05   -0.29064E-06   648   0.395E-03    0.668E-03
DAV:   4    -0.872653606256E+03    0.24442E-06   -0.30233E-06   648   0.421E-03
 108 F= -.87265361E+03 E0= -.87265361E+03  d E =-.129848E-03
 BRION: g(F)=  0.194E-03 g(S)=  0.000E+00 retain N=  3 mean eig= 0.65
 eig:   1.151  0.406  0.406
 bond charge predicted
       N       E                     dE             d eps       ncg     rms          rms(c)
DAV:   1    -0.872653748119E+03   -0.14162E-03   -0.88722E-03   704   0.172E-01    0.234E-02
DAV:   2    -0.872653761393E+03   -0.13274E-04   -0.16068E-04   792   0.222E-02    0.130E-02
DAV:   3    -0.872653760181E+03    0.12121E-05   -0.34610E-06   648   0.420E-03    0.741E-03
DAV:   4    -0.872653759877E+03    0.30398E-06   -0.32929E-06   640   0.438E-03
 109 F= -.87265376E+03 E0= -.87265376E+03  d E =-.153620E-03
 BRION: g(F)=  0.178E-03 g(S)=  0.000E+00 retain N=  2 mean eig= 1.39
 eig:   0.197  2.586
 bond charge predicted
       N       E                     dE             d eps       ncg     rms          rms(c)
DAV:   1    -0.872653747369E+03    0.12811E-04   -0.57070E-04   720   0.473E-02    0.117E-02
DAV:   2    -0.872653748311E+03   -0.94207E-06   -0.17323E-05   816   0.798E-03    0.409E-03
DAV:   3    -0.872653747887E+03    0.42440E-06   -0.64709E-07   496   0.223E-03
 110 F= -.87265375E+03 E0= -.87265375E+03  d E =0.119896E-04
 BRION: g(F)=  0.190E-03 g(S)=  0.000E+00 retain N=  3 mean eig= 1.25
 eig:   0.319  0.319  3.103
 bond charge predicted
       N       E                     dE             d eps       ncg     rms          rms(c)
DAV:   1    -0.872653766834E+03   -0.18523E-04   -0.21335E-04   720   0.277E-02    0.482E-03
DAV:   2    -0.872653767231E+03   -0.39675E-06   -0.52433E-06   720   0.422E-03
 111 F= -.87265377E+03 E0= -.87265377E+03  d E =-.193438E-04
 BRION: g(F)=  0.177E-03 g(S)=  0.000E+00 retain N=  2 mean eig= 0.84
 eig:   0.267  1.415
 bond charge predicted
       N       E                     dE             d eps       ncg     rms          rms(c)
DAV:   1    -0.872653938292E+03   -0.17146E-03   -0.15184E-02   704   0.222E-01    0.269E-02
DAV:   2    -0.872653959797E+03   -0.21505E-04   -0.25422E-04   768   0.275E-02    0.167E-02
DAV:   3    -0.872653957740E+03    0.20569E-05   -0.49974E-06   704   0.481E-03    0.911E-03
DAV:   4    -0.872653957308E+03    0.43208E-06   -0.49453E-06   704   0.503E-03
 112 F= -.87265396E+03 E0= -.87265396E+03  d E =-.190077E-03
 BRION: g(F)=  0.162E-03 g(S)=  0.000E+00 retain N=  3 mean eig= 0.76
 eig:   1.369  0.251  0.647
 bond charge predicted
       N       E                     dE             d eps       ncg     rms          rms(c)
DAV:   1    -0.872654099848E+03   -0.14211E-03   -0.10021E-02   704   0.180E-01    0.262E-02
DAV:   2    -0.872654114670E+03   -0.14822E-04   -0.18030E-04   784   0.235E-02    0.140E-02
DAV:   3    -0.872654113175E+03    0.14944E-05   -0.38731E-06   680   0.460E-03    0.793E-03
DAV:   4    -0.872654112816E+03    0.35902E-06   -0.41033E-06   696   0.503E-03
 113 F= -.87265411E+03 E0= -.87265411E+03  d E =-.155509E-03
 BRION: g(F)=  0.202E-03 g(S)=  0.000E+00 retain N=  4 mean eig= 1.77
 eig:   5.575  0.228  0.640  0.640
 bond charge predicted
       N       E                     dE             d eps       ncg     rms          rms(c)
DAV:   1    -0.872654629774E+03   -0.51660E-03   -0.30790E-01   704   0.979E-01    0.123E-01
DAV:   2    -0.872655054810E+03   -0.42504E-03   -0.49939E-03   768   0.120E-01    0.765E-02
DAV:   3    -0.872655016629E+03    0.38181E-04   -0.98024E-05   808   0.206E-02    0.411E-02
DAV:   4    -0.872655010459E+03    0.61692E-05   -0.93383E-05   792   0.209E-02    0.919E-03
DAV:   5    -0.872655010042E+03    0.41721E-06   -0.14437E-05   808   0.799E-03    0.766E-03
DAV:   6    -0.872655009590E+03    0.45229E-06   -0.43903E-06   688   0.454E-03
 114 F= -.87265501E+03 E0= -.87265501E+03  d E =-.896774E-03
 BRION: g(F)=  0.222E-03 g(S)=  0.000E+00 retain N=  2 mean eig= 0.82
 eig:   0.263  1.371
 bond charge predicted
       N       E                     dE             d eps       ncg     rms          rms(c)
DAV:   1    -0.872653665421E+03    0.13446E-02   -0.33640E-01   704   0.102E+00    0.128E-01
DAV:   2    -0.872654123418E+03   -0.45800E-03   -0.54110E-03   768   0.125E-01    0.799E-02
DAV:   3    -0.872654080337E+03    0.43081E-04   -0.10719E-04   808   0.214E-02    0.428E-02
DAV:   4    -0.872654073148E+03    0.71884E-05   -0.10170E-04   800   0.217E-02    0.945E-03
DAV:   5    -0.872654072750E+03    0.39859E-06   -0.15615E-05   800   0.824E-03    0.792E-03
DAV:   6    -0.872654072226E+03    0.52356E-06   -0.45305E-06   704   0.462E-03
 115 F= -.87265407E+03 E0= -.87265407E+03  d E =0.937364E-03
 BRION: g(F)=  0.182E-03 g(S)=  0.000E+00 retain N=  2 mean eig= 0.74
 eig:   0.319  1.168
 bond charge predicted
       N       E                     dE             d eps       ncg     rms          rms(c)
DAV:   1    -0.872654293863E+03   -0.22111E-03   -0.29678E-02   704   0.306E-01    0.390E-02
DAV:   2    -0.872654334597E+03   -0.40734E-04   -0.49015E-04   776   0.382E-02    0.233E-02
DAV:   3    -0.872654330045E+03    0.45515E-05   -0.10435E-05   800   0.681E-03    0.127E-02
DAV:   4    -0.872654328945E+03    0.11004E-05   -0.98817E-06   784   0.690E-03    0.280E-03
DAV:   5    -0.872654328931E+03    0.13737E-07   -0.16024E-06   504   0.274E-03
 116 F= -.87265433E+03 E0= -.87265433E+03  d E =-.256705E-03
 BRION: g(F)=  0.227E-03 g(S)=  0.000E+00 retain N=  3 mean eig= 0.61
 eig:   1.203  0.314  0.314
 bond charge predicted
       N       E                     dE             d eps       ncg     rms          rms(c)
DAV:   1    -0.872654322511E+03    0.64341E-05   -0.71300E-04   712   0.505E-02    0.114E-02
DAV:   2    -0.872654323681E+03   -0.11698E-05   -0.19607E-05   816   0.824E-03    0.477E-03
DAV:   3    -0.872654323205E+03    0.47534E-06   -0.60310E-07   496   0.216E-03
 117 F= -.87265432E+03 E0= -.87265432E+03  d E =0.572593E-05
 BRION: g(F)=  0.175E-03 g(S)=  0.000E+00 retain N=  1 mean eig= 0.27
 eig:   0.269
 bond charge predicted
       N       E                     dE             d eps       ncg     rms          rms(c)
DAV:   1    -0.872654468017E+03   -0.14434E-03   -0.13888E-02   704   0.216E-01    0.310E-02
DAV:   2    -0.872654488667E+03   -0.20650E-04   -0.25598E-04   784   0.285E-02    0.156E-02
DAV:   3    -0.872654486052E+03    0.26152E-05   -0.58903E-06   760   0.580E-03    0.892E-03
DAV:   4    -0.872654485143E+03    0.90910E-06   -0.56276E-06   752   0.619E-03
 118 F= -.87265449E+03 E0= -.87265449E+03  d E =-.161938E-03
 BRION: g(F)=  0.236E-03 g(S)=  0.000E+00 retain N=  2 mean eig= 0.26
 eig:   0.261  0.261
 bond charge predicted
       N       E                     dE             d eps       ncg     rms          rms(c)
DAV:   1    -0.872654533889E+03   -0.47837E-04   -0.16525E-03   704   0.785E-02    0.182E-02
DAV:   2    -0.872654536126E+03   -0.22363E-05   -0.43022E-05   824   0.126E-02    0.651E-03
[...]
DAV:   1    -0.872678854608E+03   -0.21512E-05   -0.14358E-04   720   0.230E-02    0.649E-03
DAV:   2    -0.872678854778E+03   -0.17005E-06   -0.44451E-06   680   0.401E-03
 465 F= -.87267885E+03 E0= -.87267885E+03  d E =-.253620E-05
 BRION: g(F)=  0.762E-04 g(S)=  0.000E+00 retain N=  2 mean eig= 0.08
 eig:   0.131  0.025
 bond charge predicted
       N       E                     dE             d eps       ncg     rms          rms(c)
DAV:   1    -0.872678911209E+03   -0.56601E-04   -0.33323E-03   704   0.103E-01    0.130E-02
DAV:   2    -0.872678916181E+03   -0.49718E-05   -0.57596E-05   776   0.129E-02    0.783E-03
DAV:   3    -0.872678915777E+03    0.40335E-06   -0.94875E-07   544   0.217E-03
 466 F= -.87267892E+03 E0= -.87267892E+03  d E =-.609990E-04
 BRION: g(F)=  0.764E-04 g(S)=  0.000E+00 retain N=  3 mean eig= 1.61
 eig:   4.077  0.377  0.377
 bond charge predicted
       N       E                     dE             d eps       ncg     rms          rms(c)
DAV:   1    -0.872678879730E+03    0.36451E-04   -0.11863E-03   704   0.603E-02    0.739E-03
DAV:   2    -0.872678881502E+03   -0.17721E-05   -0.21133E-05   768   0.782E-03    0.477E-03
DAV:   3    -0.872678881282E+03    0.22045E-06   -0.35377E-07   464   0.146E-03
 467 F= -.87267888E+03 E0= -.87267888E+03  d E =0.344959E-04
 BRION: g(F)=  0.764E-04 g(S)=  0.000E+00 retain N=  3 mean eig= 1.98
 eig:   0.235  0.080  5.616
 bond charge predicted
       N       E                     dE             d eps       ncg     rms          rms(c)
DAV:   1    -0.872678741308E+03    0.14019E-03   -0.13128E-02   704   0.202E-01    0.270E-02
DAV:   2    -0.872678759862E+03   -0.18554E-04   -0.21892E-04   776   0.253E-02    0.156E-02
DAV:   3    -0.872678758071E+03    0.17906E-05   -0.42652E-06   712   0.465E-03    0.860E-03
DAV:   4    -0.872678757658E+03    0.41365E-06   -0.41949E-06   656   0.509E-03
 468 F= -.87267876E+03 E0= -.87267876E+03  d E =0.123624E-03
 BRION: g(F)=  0.115E-03 g(S)=  0.000E+00 retain N=  3 mean eig= 0.55
 eig:   0.999  0.214  0.446
 bond charge predicted
       N       E                     dE             d eps       ncg     rms          rms(c)
DAV:   1    -0.872678875113E+03   -0.11704E-03   -0.18282E-02   704   0.238E-01    0.303E-02
DAV:   2    -0.872678900297E+03   -0.25184E-04   -0.30012E-04   760   0.295E-02    0.182E-02
DAV:   3    -0.872678897496E+03    0.28008E-05   -0.59325E-06   728   0.535E-03    0.996E-03
DAV:   4    -0.872678896849E+03    0.64717E-06   -0.59369E-06   744   0.539E-03
 469 F= -.87267890E+03 E0= -.87267890E+03  d E =-.139192E-03
 BRION: g(F)=  0.971E-04 g(S)=  0.000E+00 retain N=  3 mean eig= 1.62
 eig:   3.880  0.245  0.736
 bond charge predicted
       N       E                     dE             d eps       ncg     rms          rms(c)
DAV:   1    -0.872678925033E+03   -0.27536E-04   -0.20047E-03   704   0.840E-02    0.196E-02
DAV:   2    -0.872678927731E+03   -0.26982E-05   -0.49869E-05   816   0.133E-02    0.693E-03
DAV:   3    -0.872678926635E+03    0.10954E-05   -0.19817E-06   560   0.396E-03    0.387E-03
DAV:   4    -0.872678926230E+03    0.40572E-06   -0.18353E-06   584   0.381E-03
 470 F= -.87267893E+03 E0= -.87267893E+03  d E =-.293805E-04
 BRION: g(F)=  0.124E-03 g(S)=  0.000E+00 retain N=  3 mean eig= 1.49
 eig:   3.741  0.603  0.116
 bond charge predicted
       N       E                     dE             d eps       ncg     rms          rms(c)
DAV:   1    -0.872678997245E+03   -0.70610E-04   -0.44158E-03   704   0.119E-01    0.181E-02
DAV:   2    -0.872679003927E+03   -0.66821E-05   -0.82930E-05   792   0.160E-02    0.978E-03
DAV:   3    -0.872679003115E+03    0.81215E-06   -0.18593E-06   608   0.341E-03
 471 F= -.87267900E+03 E0= -.87267900E+03  d E =-.768852E-04
 BRION: g(F)=  0.899E-04 g(S)=  0.000E+00 retain N=  2 mean eig= 0.71
 eig:   0.220  1.191
 bond charge predicted
       N       E                     dE             d eps       ncg     rms          rms(c)
DAV:   1    -0.872679010239E+03   -0.63124E-05   -0.78139E-04   704   0.547E-02    0.130E-02
DAV:   2    -0.872679011541E+03   -0.13016E-05   -0.22295E-05   816   0.898E-03    0.461E-03
DAV:   3    -0.872679010958E+03    0.58334E-06   -0.75174E-07   504   0.301E-03
 472 F= -.87267901E+03 E0= -.87267901E+03  d E =-.784281E-05
 BRION: g(F)=  0.104E-03 g(S)=  0.000E+00 retain N=  3 mean eig= 0.61
 eig:   1.329  0.213  0.276
 bond charge predicted
       N       E                     dE             d eps       ncg     rms          rms(c)
DAV:   1    -0.872679022350E+03   -0.10809E-04   -0.38447E-04   704   0.386E-02    0.905E-03
DAV:   2    -0.872679023254E+03   -0.90497E-06   -0.12913E-05   784   0.663E-03    0.334E-03
DAV:   3    -0.872679023006E+03    0.24824E-06   -0.35475E-07   408   0.192E-03
 473 F= -.87267902E+03 E0= -.87267902E+03  d E =-.120486E-04
 BRION: g(F)=  0.799E-04 g(S)=  0.000E+00 retain N=  1 mean eig= 0.30
 eig:   0.297
 bond charge predicted
       N       E                     dE             d eps       ncg     rms          rms(c)
DAV:   1    -0.872679086521E+03   -0.63266E-04   -0.67742E-03   704   0.146E-01    0.223E-02
DAV:   2    -0.872679095857E+03   -0.93362E-05   -0.12005E-04   800   0.193E-02    0.111E-02
DAV:   3    -0.872679094390E+03    0.14670E-05   -0.29463E-06   656   0.433E-03    0.622E-03
DAV:   4    -0.872679093905E+03    0.48514E-06   -0.29516E-06   656   0.450E-03
 474 F= -.87267909E+03 E0= -.87267909E+03  d E =-.708987E-04
 BRION: g(F)=  0.126E-03 g(S)=  0.000E+00 retain N=  2 mean eig= 0.26
 eig:   0.316  0.207
 bond charge predicted
       N       E                     dE             d eps       ncg     rms          rms(c)
DAV:   1    -0.872679116643E+03   -0.22253E-04   -0.78079E-04   704   0.536E-02    0.136E-02
DAV:   2    -0.872679117582E+03   -0.93884E-06   -0.22093E-05   824   0.903E-03    0.477E-03
DAV:   3    -0.872679117043E+03    0.53888E-06   -0.11302E-06   512   0.291E-03
 475 F= -.87267912E+03 E0= -.87267912E+03  d E =-.231383E-04
 BRION: g(F)=  0.742E-04 g(S)=  0.000E+00 retain N=  1 mean eig= 0.22
 eig:   0.223
 bond charge predicted
       N       E                     dE             d eps       ncg     rms          rms(c)
DAV:   1    -0.872679181917E+03   -0.64335E-04   -0.47713E-03   704   0.123E-01    0.156E-02
DAV:   2    -0.872679188857E+03   -0.69396E-05   -0.81434E-05   784   0.153E-02    0.940E-03
DAV:   3    -0.872679188233E+03    0.62364E-06   -0.14330E-06   592   0.263E-03
 476 F= -.87267919E+03 E0= -.87267919E+03  d E =-.711899E-04
 BRION: g(F)=  0.766E-04 g(S)=  0.000E+00 retain N=  2 mean eig= 0.23
 eig:   0.100  0.354
 bond charge predicted
       N       E                     dE             d eps       ncg     rms          rms(c)
DAV:   1    -0.872679217085E+03   -0.28228E-04   -0.88171E-04   704   0.521E-02    0.770E-03
DAV:   2    -0.872679218218E+03   -0.11326E-05   -0.14086E-05   800   0.650E-03    0.407E-03
DAV:   3    -0.872679218109E+03    0.10827E-06   -0.37998E-07   456   0.153E-03
 477 F= -.87267922E+03 E0= -.87267922E+03  d E =-.298761E-04
 BRION: g(F)=  0.760E-04 g(S)=  0.000E+00 retain N=  2 mean eig= 3.75
 eig:   0.488  7.015
 bond charge predicted
       N       E                     dE             d eps       ncg     rms          rms(c)
DAV:   1    -0.872679137603E+03    0.80615E-04   -0.49903E-03   704   0.125E-01    0.151E-02
DAV:   2    -0.872679144918E+03   -0.73149E-05   -0.85004E-05   768   0.155E-02    0.944E-03
DAV:   3    -0.872679144277E+03    0.64076E-06   -0.14696E-06   592   0.261E-03
 478 F= -.87267914E+03 E0= -.87267914E+03  d E =0.738324E-04
 BRION: g(F)=  0.752E-04 g(S)=  0.000E+00 retain N=  2 mean eig= 0.08
 eig:   0.081  0.081
 bond charge predicted
       N       E                     dE             d eps       ncg     rms          rms(c)
DAV:   1    -0.872679213402E+03   -0.68484E-04   -0.58774E-03   704   0.137E-01    0.168E-02
DAV:   2    -0.872679222658E+03   -0.92559E-05   -0.10798E-04   776   0.177E-02    0.105E-02
DAV:   3    -0.872679221713E+03    0.94528E-06   -0.18526E-06   608   0.325E-03
 479 F= -.87267922E+03 E0= -.87267922E+03  d E =-.774357E-04
 BRION: g(F)=  0.796E-04 g(S)=  0.000E+00 retain N=  3 mean eig= 0.15
 eig:   0.128  0.161  0.161
 bond charge predicted
       N       E                     dE             d eps       ncg     rms          rms(c)
DAV:   1    -0.872679233606E+03   -0.10948E-04   -0.18752E-04   720   0.255E-02    0.526E-03
DAV:   2    -0.872679233772E+03   -0.16679E-06   -0.36630E-06   680   0.366E-03
 480 F= -.87267923E+03 E0= -.87267923E+03  d E =-.120598E-04
 BRION: g(F)=  0.732E-04 g(S)=  0.000E+00 retain N=  2 mean eig= 3.93
 eig:   0.095  7.772
 bond charge predicted
       N       E                     dE             d eps       ncg     rms          rms(c)
DAV:   1    -0.872679298187E+03   -0.64581E-04   -0.49244E-03   704   0.125E-01    0.162E-02
DAV:   2    -0.872679305413E+03   -0.72266E-05   -0.84938E-05   784   0.157E-02    0.977E-03
DAV:   3    -0.872679304728E+03    0.68475E-06   -0.14957E-06   592   0.279E-03
 481 F= -.87267930E+03 E0= -.87267930E+03  d E =-.709561E-04
 BRION: g(F)=  0.774E-04 g(S)=  0.000E+00 retain N=  2 mean eig= 0.10
 eig:   0.109  0.097
 bond charge predicted
       N       E                     dE             d eps       ncg     rms          rms(c)
DAV:   1    -0.872679327301E+03   -0.21888E-04   -0.50903E-04   704   0.396E-02    0.579E-03
DAV:   2    -0.872679327910E+03   -0.60859E-06   -0.77478E-06   784   0.482E-03
 482 F= -.87267933E+03 E0= -.87267933E+03  d E =-.231814E-04
 BRION: g(F)=  0.714E-04 g(S)=  0.000E+00 retain N=  3 mean eig= 2.17
 eig:   5.355  0.331  0.830
 bond charge predicted
       N       E                     dE             d eps       ncg     rms          rms(c)
DAV:   1    -0.872679502504E+03   -0.17520E-03   -0.56850E-02   704   0.422E-01    0.533E-02
DAV:   2    -0.872679583785E+03   -0.81281E-04   -0.95346E-04   776   0.520E-02    0.332E-02
DAV:   3    -0.872679576562E+03    0.72228E-05   -0.18068E-05   800   0.896E-03    0.178E-02
DAV:   4    -0.872679575437E+03    0.11252E-05   -0.18082E-05   800   0.916E-03    0.415E-03
DAV:   5    -0.872679575333E+03    0.10455E-06   -0.26700E-06   600   0.351E-03
 483 F= -.87267958E+03 E0= -.87267958E+03  d E =-.247423E-03
 BRION: g(F)=  0.935E-04 g(S)=  0.000E+00 retain N=  2 mean eig= 0.60
 eig:   0.604  0.604
 bond charge predicted
       N       E                     dE             d eps       ncg     rms          rms(c)
DAV:   1    -0.872679454600E+03    0.12084E-03   -0.10785E-02   704   0.186E-01    0.235E-02
DAV:   2    -0.872679470096E+03   -0.15496E-04   -0.18633E-04   784   0.233E-02    0.147E-02
DAV:   3    -0.872679468419E+03    0.16770E-05   -0.38251E-06   672   0.421E-03    0.810E-03
DAV:   4    -0.872679468016E+03    0.40354E-06   -0.39180E-06   656   0.439E-03
 484 F= -.87267947E+03 E0= -.87267947E+03  d E =0.107317E-03
 BRION: g(F)=  0.844E-04 g(S)=  0.000E+00 retain N=  2 mean eig= 4.09
 eig:   0.815  7.367
 bond charge predicted
       N       E                     dE             d eps       ncg     rms          rms(c)
DAV:   1    -0.872679343683E+03    0.12474E-03   -0.11116E-02   704   0.189E-01    0.232E-02
DAV:   2    -0.872679360656E+03   -0.16973E-04   -0.19614E-04   776   0.237E-02    0.138E-02
DAV:   3    -0.872679359524E+03    0.11319E-05   -0.37046E-06   680   0.403E-03    0.778E-03
DAV:   4    -0.872679359277E+03    0.24727E-06   -0.35275E-06   632   0.440E-03
 485 F= -.87267936E+03 E0= -.87267936E+03  d E =0.108739E-03
 BRION: g(F)=  0.973E-04 g(S)=  0.000E+00 retain N=  3 mean eig= 2.84
 eig:   7.396  0.799  0.332
 bond charge predicted
       N       E                     dE             d eps       ncg     rms          rms(c)
DAV:   1    -0.872679323737E+03    0.35787E-04   -0.13952E-03   704   0.665E-02    0.926E-03
DAV:   2    -0.872679325849E+03   -0.21121E-05   -0.25609E-05   792   0.880E-03    0.483E-03
DAV:   3    -0.872679325693E+03    0.15595E-06   -0.53680E-07   496   0.172E-03
 486 F= -.87267933E+03 E0= -.87267933E+03  d E =0.335840E-04
 BRION: g(F)=  0.829E-04 g(S)=  0.000E+00 retain N=  1 mean eig= 0.04
 eig:   0.038
 bond charge predicted
       N       E                     dE             d eps       ncg     rms          rms(c)
DAV:   1    -0.872679364303E+03   -0.38454E-04   -0.40831E-03   704   0.121E-01    0.253E-02
DAV:   2    -0.872679371245E+03   -0.69418E-05   -0.10370E-04   808   0.189E-02    0.102E-02
DAV:   3    -0.872679369241E+03    0.20033E-05   -0.33646E-06   704   0.527E-03    0.570E-03
DAV:   4    -0.872679368420E+03    0.82174E-06   -0.32383E-06   672   0.544E-03
 487 F= -.87267937E+03 E0= -.87267937E+03  d E =-.427268E-04
 BRION: g(F)=  0.181E-03 g(S)=  0.000E+00 retain N=  2 mean eig= 0.23
 eig:   0.233  0.224
 bond charge predicted
       N       E                     dE             d eps       ncg     rms          rms(c)
DAV:   1    -0.872679382632E+03   -0.13390E-04   -0.13667E-03   704   0.726E-02    0.187E-02
DAV:   2    -0.872679384437E+03   -0.18049E-05   -0.39385E-05   824   0.122E-02    0.603E-03
DAV:   3    -0.872679383418E+03    0.10187E-05   -0.17626E-06   520   0.392E-03    0.331E-03
DAV:   4    -0.872679383034E+03    0.38422E-06   -0.14344E-06   504   0.352E-03
 488 F= -.87267938E+03 E0= -.87267938E+03  d E =-.146141E-04
 BRION: g(F)=  0.824E-04 g(S)=  0.000E+00 retain N=  1 mean eig= 0.23
 eig:   0.235
 bond charge predicted
       N       E                     dE             d eps       ncg     rms          rms(c)
DAV:   1    -0.872679437623E+03   -0.54205E-04   -0.58273E-03   704   0.143E-01    0.246E-02
DAV:   2    -0.872679447249E+03   -0.96256E-05   -0.12803E-04   800   0.204E-02    0.111E-02
DAV:   3    -0.872679445491E+03    0.17578E-05   -0.35152E-06   736   0.494E-03    0.631E-03
DAV:   4    -0.872679444786E+03    0.70433E-06   -0.29593E-06   688   0.488E-03
 489 F= -.87267944E+03 E0= -.87267944E+03  d E =-.617526E-04
 BRION: g(F)=  0.173E-03 g(S)=  0.000E+00 retain N=  2 mean eig= 0.22
 eig:   0.225  0.225
 bond charge predicted
       N       E                     dE             d eps       ncg     rms          rms(c)
DAV:   1    -0.872679471426E+03   -0.25935E-04   -0.13837E-03   704   0.688E-02    0.175E-02
DAV:   2    -0.872679473094E+03   -0.16674E-05   -0.36417E-05   816   0.113E-02    0.616E-03
DAV:   3    -0.872679472163E+03    0.93076E-06   -0.16977E-06   576   0.366E-03
 490 F= -.87267947E+03 E0= -.87267947E+03  d E =-.273763E-04
 BRION: g(F)=  0.718E-04 g(S)=  0.000E+00 retain N=  1 mean eig= 0.23
 eig:   0.229
 bond charge predicted
       N       E                     dE             d eps       ncg     rms          rms(c)
DAV:   1    -0.872679535652E+03   -0.62559E-04   -0.48718E-03   704   0.122E-01    0.159E-02
DAV:   2    -0.872679542576E+03   -0.69233E-05   -0.82715E-05   784   0.154E-02    0.979E-03
DAV:   3    -0.872679541919E+03    0.65634E-06   -0.15662E-06   600   0.277E-03
 491 F= -.87267954E+03 E0= -.87267954E+03  d E =-.697567E-04
 BRION: g(F)=  0.737E-04 g(S)=  0.000E+00 retain N=  2 mean eig= 0.22
 eig:   0.324  0.114
 bond charge predicted
       N       E                     dE             d eps       ncg     rms          rms(c)
DAV:   1    -0.872679570760E+03   -0.28184E-04   -0.82490E-04   704   0.524E-02    0.767E-03
DAV:   2    -0.872679571915E+03   -0.11549E-05   -0.14421E-05   792   0.666E-03    0.420E-03
DAV:   3    -0.872679571785E+03    0.12982E-06   -0.46881E-07   488   0.173E-03
 492 F= -.87267957E+03 E0= -.87267957E+03  d E =-.298653E-04
 BRION: g(F)=  0.707E-04 g(S)=  0.000E+00 retain N=  2 mean eig= 2.93
 eig:   0.261  5.590
 bond charge predicted
       N       E                     dE             d eps       ncg     rms          rms(c)
DAV:   1    -0.872679618432E+03   -0.46518E-04   -0.25119E-03   704   0.892E-02    0.127E-02
DAV:   2    -0.872679621980E+03   -0.35480E-05   -0.43379E-05   784   0.114E-02    0.695E-03
DAV:   3    -0.872679621582E+03    0.39826E-06   -0.87702E-07   544   0.230E-03
 493 F= -.87267962E+03 E0= -.87267962E+03  d E =-.497970E-04
 BRION: g(F)=  0.755E-04 g(S)=  0.000E+00 retain N=  2 mean eig= 0.24
 eig:   0.242  0.242
 bond charge predicted
       N       E                     dE             d eps       ncg     rms          rms(c)
DAV:   1    -0.872679650834E+03   -0.28854E-04   -0.91765E-04   704   0.536E-02    0.795E-03
DAV:   2    -0.872679652048E+03   -0.12138E-05   -0.15479E-05   792   0.681E-03    0.424E-03
DAV:   3    -0.872679651905E+03    0.14313E-06   -0.35794E-07   464   0.150E-03
 494 F= -.87267965E+03 E0= -.87267965E+03  d E =-.303228E-04
 BRION: g(F)=  0.698E-04 g(S)=  0.000E+00 retain N=  2 mean eig= 3.66
 eig:   0.201  7.113
 bond charge predicted
       N       E                     dE             d eps       ncg     rms          rms(c)
DAV:   1    -0.872679686104E+03   -0.34057E-04   -0.11990E-03   704   0.614E-02    0.782E-03
DAV:   2    -0.872679687769E+03   -0.16652E-05   -0.19642E-05   792   0.747E-03    0.473E-03
DAV:   3    -0.872679687633E+03    0.13651E-06   -0.34556E-07   472   0.131E-03
 495 F= -.87267969E+03 E0= -.87267969E+03  d E =-.357284E-04
 BRION: g(F)=  0.693E-04 g(S)=  0.000E+00 retain N=  2 mean eig= 0.32
 eig:   0.222  0.413
 bond charge predicted
       N       E                     dE             d eps       ncg     rms          rms(c)
DAV:   1    -0.872679744049E+03   -0.56279E-04   -0.36316E-03   704   0.107E-01    0.131E-02
DAV:   2    -0.872679749150E+03   -0.51015E-05   -0.59321E-05   776   0.129E-02    0.795E-03
DAV:   3    -0.872679748759E+03    0.39101E-06   -0.10612E-06   576   0.216E-03
 496 F= -.87267975E+03 E0= -.87267975E+03  d E =-.611264E-04
 BRION: g(F)=  0.705E-04 g(S)=  0.000E+00 retain N=  3 mean eig= 0.47
 eig:   0.524  0.239  0.654
 bond charge predicted
       N       E                     dE             d eps       ncg     rms          rms(c)
DAV:   1    -0.872679745218E+03    0.39322E-05   -0.16587E-05   664   0.732E-03    0.101E-03
DAV:   2    -0.872679745252E+03   -0.33666E-07   -0.54903E-07   400   0.140E-03
 497 F= -.87267975E+03 E0= -.87267975E+03  d E =0.350757E-05
 BRION: g(F)=  0.701E-04 g(S)=  0.000E+00 retain N=  4 mean eig= 0.45
 eig:   0.745  0.480  0.421  0.171
 bond charge predicted
       N       E                     dE             d eps       ncg     rms          rms(c)
DAV:   1    -0.872679708497E+03    0.36721E-04   -0.13929E-03   704   0.616E-02    0.927E-03
DAV:   2    -0.872679710009E+03   -0.15121E-05   -0.20329E-05   808   0.755E-03    0.536E-03
DAV:   3    -0.872679709706E+03    0.30293E-06   -0.50133E-07   528   0.166E-03
 498 F= -.87267971E+03 E0= -.87267971E+03  d E =0.355455E-04
 BRION: g(F)=  0.842E-04 g(S)=  0.000E+00 retain N=  5 mean eig= 1.80
 eig:   7.456  0.580  0.565  0.243  0.145
 bond charge predicted
       N       E                     dE             d eps       ncg     rms          rms(c)
DAV:   1    -0.872679553439E+03    0.15657E-03   -0.16066E-02   704   0.213E-01    0.293E-02
DAV:   2    -0.872679574002E+03   -0.20563E-04   -0.24473E-04   776   0.255E-02    0.180E-02
DAV:   3    -0.872679571871E+03    0.21307E-05   -0.50042E-06   720   0.453E-03    0.918E-03
DAV:   4    -0.872679571605E+03    0.26675E-06   -0.38943E-06   656   0.402E-03
 499 F= -.87267957E+03 E0= -.87267957E+03  d E =0.138102E-03
 BRION: g(F)=  0.114E-03 g(S)=  0.000E+00 retain N=  6 mean eig= 1.80
 eig:   7.393  0.750  1.198  1.087  0.273  0.087
 bond charge predicted
       N       E                     dE             d eps       ncg     rms          rms(c)
DAV:   1    -0.872679641833E+03   -0.69962E-04   -0.47916E-03   704   0.117E-01    0.156E-02
DAV:   2    -0.872679647770E+03   -0.59364E-05   -0.72653E-05   760   0.140E-02    0.992E-03
DAV:   3    -0.872679646984E+03    0.78570E-06   -0.14883E-06   600   0.257E-03
 500 F= -.87267965E+03 E0= -.87267965E+03  d E =-.753793E-04
 BRION: g(F)=  0.107E-03 g(S)=  0.000E+00 retain N=  4 mean eig= 2.76
 eig:   5.794  0.210  2.631  2.416
Running "mpirun -np 48 vasp"
