       N       E                     dE             d eps       ncg     rms          rms(c)
DAV:   1     0.442134040029E+04    0.44213E+04   -0.24497E+05   760   0.116E+03
DAV:   2    -0.422702990459E+03   -0.48440E+04   -0.47468E+04   880   0.325E+02
DAV:   3    -0.976404478422E+03   -0.55370E+03   -0.55165E+03   816   0.119E+02
DAV:   4    -0.989256413135E+03   -0.12852E+02   -0.12814E+02   832   0.196E+01
DAV:   5    -0.989658180240E+03   -0.40177E+00   -0.40133E+00   832   0.312E+00    0.856E+01
DAV:   6    -0.873775555621E+03    0.11588E+03   -0.50654E+02   800   0.353E+01    0.397E+01
DAV:   7    -0.873259616612E+03    0.51594E+00   -0.16208E+01   912   0.595E+00    0.150E+01
DAV:   8    -0.872785065981E+03    0.47455E+00   -0.11100E+00   824   0.225E+00    0.600E+00
DAV:   9    -0.872647023234E+03    0.13804E+00   -0.44476E-01   832   0.145E+00    0.102E+00
DAV:  10    -0.872648638948E+03   -0.16157E-02   -0.83138E-02   808   0.622E-01    0.664E-01
DAV:  11    -0.872649679105E+03   -0.10402E-02   -0.19519E-02   792   0.291E-01    0.296E-01
DAV:  12    -0.872656099226E+03   -0.64201E-02   -0.70143E-03   776   0.216E-01    0.145E-01
DAV:  13    -0.872667316980E+03   -0.11218E-01   -0.44996E-03   808   0.191E-01    0.177E-01
DAV:  14    -0.872676419359E+03   -0.91024E-02   -0.26178E-03   800   0.126E-01    0.576E-02
DAV:  15    -0.872678440182E+03   -0.20208E-02   -0.51103E-04   816   0.527E-02    0.572E-02
DAV:  16    -0.872678963570E+03   -0.52339E-03   -0.15230E-04   808   0.272E-02    0.420E-02
DAV:  17    -0.872679193430E+03   -0.22986E-03   -0.82726E-05   816   0.169E-02    0.204E-02
DAV:  18    -0.872679572690E+03   -0.37926E-03   -0.35512E-05   776   0.106E-02    0.944E-03
DAV:  19    -0.872679607890E+03   -0.35201E-04   -0.10005E-05   768   0.762E-03    0.751E-03
DAV:  20    -0.872679622090E+03   -0.14199E-04   -0.37207E-06   664   0.411E-03    0.424E-03
DAV:  21    -0.872679641634E+03   -0.19544E-04   -0.16036E-06   544   0.251E-03    0.229E-03
DAV:  22    -0.872679646295E+03   -0.46612E-05   -0.12588E-06   528   0.234E-03    0.994E-04
DAV:  23    -0.872679646656E+03   -0.36114E-06   -0.27326E-07   520   0.107E-03
   1 F= -.87267965E+03 E0= -.87267965E+03  d E =-.872680E+03
       N       E                     dE             d eps       ncg     rms          rms(c)
DAV:   1    -0.872679672977E+03   -0.26682E-04   -0.12635E-02   736   0.196E-01    0.354E-02
DAV:   2    -0.872679689175E+03   -0.16197E-04   -0.23247E-04   816   0.271E-02    0.162E-02
DAV:   3    -0.872679684886E+03    0.42892E-05   -0.70107E-06   736   0.669E-03    0.869E-03
DAV:   4    -0.872679683596E+03    0.12895E-05   -0.63269E-06   752   0.626E-03    0.204E-03
DAV:   5    -0.872679683635E+03   -0.39094E-07   -0.17779E-06   528   0.296E-03
   2 F= -.87267968E+03 E0= -.87267968E+03  d E =-.369788E-04
       N       E                     dE             d eps       ncg     rms          rms(c)
DAV:   1    -0.872679736890E+03   -0.53294E-04   -0.24666E-03   768   0.936E-02    0.222E-02
DAV:   2    -0.872679740334E+03   -0.34434E-05   -0.68691E-05   816   0.156E-02    0.907E-03
DAV:   3    -0.872679738668E+03    0.16657E-05   -0.31906E-06   640   0.483E-03    0.506E-03
DAV:   4    -0.872679738093E+03    0.57526E-06   -0.24396E-06   592   0.415E-03
   3 F= -.87267974E+03 E0= -.87267974E+03  d E =-.544578E-04
       N       E                     dE             d eps       ncg     rms          rms(c)
DAV:   1    -0.872679796872E+03   -0.58203E-04   -0.46617E-03   736   0.122E-01    0.184E-02
DAV:   2    -0.872679804271E+03   -0.73994E-05   -0.92552E-05   808   0.169E-02    0.102E-02
DAV:   3    -0.872679803342E+03    0.92878E-06   -0.19911E-06   592   0.365E-03
   4 F= -.87267980E+03 E0= -.87267980E+03  d E =-.652493E-04
       N       E                     dE             d eps       ncg     rms          rms(c)
DAV:   1    -0.872679826532E+03   -0.22261E-04   -0.83589E-04   736   0.534E-02    0.107E-02
DAV:   2    -0.872679827694E+03   -0.11615E-05   -0.18913E-05   808   0.794E-03    0.478E-03
DAV:   3    -0.872679827293E+03    0.40128E-06   -0.81550E-07   512   0.258E-03
   5 F= -.87267983E+03 E0= -.87267983E+03  d E =-.239504E-04
       N       E                     dE             d eps       ncg     rms          rms(c)
DAV:   1    -0.872679887975E+03   -0.60282E-04   -0.42436E-03   736   0.116E-01    0.150E-02
DAV:   2    -0.872679894223E+03   -0.62476E-05   -0.73871E-05   784   0.146E-02    0.925E-03
DAV:   3    -0.872679893608E+03    0.61455E-06   -0.13124E-06   584   0.251E-03
   6 F= -.87267989E+03 E0= -.87267989E+03  d E =-.663158E-04
       N       E                     dE             d eps       ncg     rms          rms(c)
DAV:   1    -0.872679916120E+03   -0.21897E-04   -0.61415E-04   736   0.427E-02    0.638E-03
DAV:   2    -0.872679916887E+03   -0.76671E-06   -0.93732E-06   800   0.523E-03
   7 F= -.87267992E+03 E0= -.87267992E+03  d E =-.232786E-04
       N       E                     dE             d eps       ncg     rms          rms(c)
DAV:   1    -0.872679978855E+03   -0.62734E-04   -0.41556E-03   720   0.114E-01    0.157E-02
DAV:   2    -0.872679984586E+03   -0.57312E-05   -0.69217E-05   784   0.140E-02    0.978E-03
DAV:   3    -0.872679984001E+03    0.58443E-06   -0.13923E-06   600   0.263E-03
   8 F= -.87267998E+03 E0= -.87267998E+03  d E =-.671143E-04
       N       E                     dE             d eps       ncg     rms          rms(c)
DAV:   1    -0.872679994394E+03   -0.98082E-05   -0.10272E-04   688   0.176E-02    0.270E-03
DAV:   2    -0.872679994471E+03   -0.77474E-07   -0.12505E-06   528   0.207E-03
   9 F= -.87267999E+03 E0= -.87267999E+03  d E =-.104701E-04
       N       E                     dE             d eps       ncg     rms          rms(c)
DAV:   1    -0.872680092175E+03   -0.97781E-04   -0.13165E-02   720   0.203E-01    0.253E-02
DAV:   2    -0.872680111349E+03   -0.19174E-04   -0.22362E-04   784   0.251E-02    0.156E-02
DAV:   3    -0.872680109679E+03    0.16707E-05   -0.40357E-06   696   0.428E-03    0.846E-03
DAV:   4    -0.872680109351E+03    0.32735E-06   -0.40571E-06   672   0.451E-03
  10 F= -.87268011E+03 E0= -.87268011E+03  d E =-.114880E-03
       N       E                     dE             d eps       ncg     rms          rms(c)
DAV:   1    -0.872680144386E+03   -0.34707E-04   -0.14756E-03   720   0.672E-02    0.113E-02
DAV:   2    -0.872680146510E+03   -0.21244E-05   -0.28079E-05   800   0.946E-03    0.563E-03
DAV:   3    -0.872680146221E+03    0.28868E-06   -0.74701E-07   528   0.232E-03
  11 F= -.87268015E+03 E0= -.87268015E+03  d E =-.368701E-04
       N       E                     dE             d eps       ncg     rms          rms(c)
DAV:   1    -0.872680186840E+03   -0.40330E-04   -0.33980E-03   720   0.975E-02    0.154E-02
DAV:   2    -0.872680190718E+03   -0.38779E-05   -0.51171E-05   808   0.122E-02    0.833E-03
DAV:   3    -0.872680189996E+03    0.72200E-06   -0.13164E-06   576   0.269E-03
  12 F= -.87268019E+03 E0= -.87268019E+03  d E =-.437745E-04
       N       E                     dE             d eps       ncg     rms          rms(c)
DAV:   1    -0.872680206266E+03   -0.15548E-04   -0.29173E-04   760   0.310E-02    0.714E-03
DAV:   2    -0.872680206839E+03   -0.57320E-06   -0.90592E-06   760   0.515E-03
  13 F= -.87268021E+03 E0= -.87268021E+03  d E =-.168434E-04
       N       E                     dE             d eps       ncg     rms          rms(c)
DAV:   1    -0.872680264062E+03   -0.57796E-04   -0.51187E-03   720   0.130E-01    0.216E-02
DAV:   2    -0.872680271929E+03   -0.78677E-05   -0.99974E-05   792   0.178E-02    0.104E-02
DAV:   3    -0.872680270682E+03    0.12474E-05   -0.21859E-06   600   0.402E-03    0.582E-03
DAV:   4    -0.872680270221E+03    0.46102E-06   -0.24874E-06   616   0.449E-03
  14 F= -.87268027E+03 E0= -.87268027E+03  d E =-.633817E-04
       N       E                     dE             d eps       ncg     rms          rms(c)
DAV:   1    -0.872680291794E+03   -0.21112E-04   -0.82525E-04   720   0.547E-02    0.127E-02
DAV:   2    -0.872680292776E+03   -0.98228E-06   -0.20791E-05   824   0.899E-03    0.462E-03
DAV:   3    -0.872680292281E+03    0.49453E-06   -0.10456E-06   504   0.297E-03
  15 F= -.87268029E+03 E0= -.87268029E+03  d E =-.220606E-04
       N       E                     dE             d eps       ncg     rms          rms(c)
DAV:   1    -0.872680355331E+03   -0.62555E-04   -0.45525E-03   720   0.119E-01    0.153E-02
DAV:   2    -0.872680361710E+03   -0.63789E-05   -0.75889E-05   784   0.147E-02    0.937E-03
DAV:   3    -0.872680361109E+03    0.60016E-06   -0.14280E-06   592   0.261E-03
  16 F= -.87268036E+03 E0= -.87268036E+03  d E =-.688279E-04
       N       E                     dE             d eps       ncg     rms          rms(c)
DAV:   1    -0.872680393208E+03   -0.31499E-04   -0.11165E-03   720   0.582E-02    0.818E-03
DAV:   2    -0.872680394628E+03   -0.14195E-05   -0.17203E-05   792   0.704E-03    0.456E-03
DAV:   3    -0.872680394512E+03    0.11592E-06   -0.42612E-07   472   0.148E-03
  17 F= -.87268039E+03 E0= -.87268039E+03  d E =-.334023E-04
       N       E                     dE             d eps       ncg     rms          rms(c)
DAV:   1    -0.872680472617E+03   -0.77989E-04   -0.68850E-03   720   0.145E-01    0.185E-02
DAV:   2    -0.872680482253E+03   -0.96362E-05   -0.11269E-04   784   0.177E-02    0.114E-02
DAV:   3    -0.872680481432E+03    0.82059E-06   -0.20080E-06   600   0.301E-03
  18 F= -.87268048E+03 E0= -.87268048E+03  d E =-.869206E-04
       N       E                     dE             d eps       ncg     rms          rms(c)
DAV:   1    -0.872680387150E+03    0.95103E-04   -0.69770E-03   720   0.146E-01    0.183E-02
DAV:   2    -0.872680397358E+03   -0.10208E-04   -0.12033E-04   768   0.184E-02    0.116E-02
DAV:   3    -0.872680396247E+03    0.11102E-05   -0.21128E-06   608   0.327E-03    0.641E-03
DAV:   4    -0.872680396028E+03    0.21949E-06   -0.27150E-06   584   0.353E-03
  19 F= -.87268040E+03 E0= -.87268040E+03  d E =0.854043E-04
       N       E                     dE             d eps       ncg     rms          rms(c)
DAV:   1    -0.872680464033E+03   -0.67785E-04   -0.53219E-03   720   0.128E-01    0.165E-02
DAV:   2    -0.872680471260E+03   -0.72278E-05   -0.86632E-05   768   0.157E-02    0.101E-02
DAV:   3    -0.872680470405E+03    0.85578E-06   -0.16024E-06   608   0.287E-03
  20 F= -.87268047E+03 E0= -.87268047E+03  d E =-.743767E-04
       N       E                     dE             d eps       ncg     rms          rms(c)
DAV:   1    -0.872680548664E+03   -0.77404E-04   -0.54869E-03   720   0.125E-01    0.206E-02
DAV:   2    -0.872680555523E+03   -0.68593E-05   -0.88356E-05   792   0.161E-02    0.116E-02
DAV:   3    -0.872680554593E+03    0.93062E-06   -0.22412E-06   616   0.381E-03
  21 F= -.87268055E+03 E0= -.87268055E+03  d E =-.841882E-04
       N       E                     dE             d eps       ncg     rms          rms(c)
DAV:   1    -0.872680569513E+03   -0.13990E-04   -0.14909E-03   720   0.744E-02    0.141E-02
DAV:   2    -0.872680572076E+03   -0.25626E-05   -0.36010E-05   816   0.110E-02    0.535E-03
DAV:   3    -0.872680571476E+03    0.60032E-06   -0.10290E-06   512   0.282E-03
  22 F= -.87268057E+03 E0= -.87268057E+03  d E =-.168827E-04
       N       E                     dE             d eps       ncg     rms          rms(c)
DAV:   1    -0.872680599936E+03   -0.27860E-04   -0.12524E-03   720   0.672E-02    0.129E-02
DAV:   2    -0.872680602343E+03   -0.24070E-05   -0.32188E-05   808   0.103E-02    0.597E-03
DAV:   3    -0.872680601829E+03    0.51410E-06   -0.79489E-07   512   0.247E-03
  23 F= -.87268060E+03 E0= -.87268060E+03  d E =-.303536E-04
       N       E                     dE             d eps       ncg     rms          rms(c)
DAV:   1    -0.872680620490E+03   -0.18147E-04   -0.55866E-04   720   0.444E-02    0.944E-03
DAV:   2    -0.872680621394E+03   -0.90397E-06   -0.14107E-05   808   0.689E-03    0.386E-03
DAV:   3    -0.872680621113E+03    0.28150E-06   -0.45583E-07   480   0.194E-03
  24 F= -.87268062E+03 E0= -.87268062E+03  d E =-.192835E-04
       N       E                     dE             d eps       ncg     rms          rms(c)
DAV:   1    -0.872680680948E+03   -0.59554E-04   -0.40135E-03   720   0.112E-01    0.142E-02
DAV:   2    -0.872680686721E+03   -0.57726E-05   -0.67994E-05   784   0.138E-02    0.879E-03
DAV:   3    -0.872680686241E+03    0.47956E-06   -0.12260E-06   584   0.239E-03
  25 F= -.87268069E+03 E0= -.87268069E+03  d E =-.651283E-04
       N       E                     dE             d eps       ncg     rms          rms(c)
DAV:   1    -0.872680699801E+03   -0.13080E-04   -0.20255E-04   704   0.247E-02    0.360E-03
DAV:   2    -0.872680699998E+03   -0.19731E-06   -0.26536E-06   624   0.289E-03
  26 F= -.87268070E+03 E0= -.87268070E+03  d E =-.137572E-04
       N       E                     dE             d eps       ncg     rms          rms(c)
DAV:   1    -0.872680760353E+03   -0.60552E-04   -0.41849E-03   720   0.114E-01    0.153E-02
DAV:   2    -0.872680766334E+03   -0.59807E-05   -0.71466E-05   784   0.143E-02    0.940E-03
DAV:   3    -0.872680765730E+03    0.60330E-06   -0.13635E-06   592   0.264E-03
  27 F= -.87268077E+03 E0= -.87268077E+03  d E =-.657320E-04
       N       E                     dE             d eps       ncg     rms          rms(c)
DAV:   1    -0.872680893062E+03   -0.12673E-03   -0.25330E-02   720   0.279E-01    0.352E-02
DAV:   2    -0.872680928098E+03   -0.35036E-04   -0.41068E-04   776   0.340E-02    0.213E-02
DAV:   3    -0.872680925258E+03    0.28399E-05   -0.80362E-06   752   0.575E-03    0.116E-02
DAV:   4    -0.872680924750E+03    0.50833E-06   -0.70999E-06   760   0.590E-03
  28 F= -.87268092E+03 E0= -.87268092E+03  d E =-.159020E-03
       N       E                     dE             d eps       ncg     rms          rms(c)
DAV:   1    -0.872681121942E+03   -0.19668E-03   -0.10331E-01   704   0.557E-01    0.719E-02
DAV:   2    -0.872681266523E+03   -0.14458E-03   -0.16948E-03   784   0.686E-02    0.444E-02
DAV:   3    -0.872681254492E+03    0.12031E-04   -0.33094E-05   808   0.118E-02    0.238E-02
DAV:   4    -0.872681252753E+03    0.17397E-05   -0.30780E-05   808   0.118E-02    0.539E-03
DAV:   5    -0.872681252553E+03    0.19936E-06   -0.45135E-06   664   0.456E-03
  29 F= -.87268125E+03 E0= -.87268125E+03  d E =-.327803E-03
       N       E                     dE             d eps       ncg     rms          rms(c)
DAV:   1    -0.872681442507E+03   -0.18975E-03   -0.13331E-01   704   0.636E-01    0.811E-02
DAV:   2    -0.872681631738E+03   -0.18923E-03   -0.21958E-03   768   0.781E-02    0.497E-02
DAV:   3    -0.872681616272E+03    0.15466E-04   -0.40838E-05   808   0.133E-02    0.269E-02
DAV:   4    -0.872681613918E+03    0.23540E-05   -0.39818E-05   808   0.136E-02    0.598E-03
DAV:   5    -0.872681613761E+03    0.15636E-06   -0.62171E-06   752   0.516E-03
  30 F= -.87268161E+03 E0= -.87268161E+03  d E =-.361208E-03
       N       E                     dE             d eps       ncg     rms          rms(c)
DAV:   1    -0.872681350463E+03    0.26345E-03   -0.47381E-02   704   0.382E-01    0.480E-02
DAV:   2    -0.872681414994E+03   -0.64531E-04   -0.77237E-04   776   0.468E-02    0.299E-02
DAV:   3    -0.872681408125E+03    0.68690E-05   -0.15610E-05   816   0.816E-03    0.161E-02
DAV:   4    -0.872681406739E+03    0.13860E-05   -0.14288E-05   792   0.810E-03    0.320E-03
DAV:   5    -0.872681406749E+03   -0.95242E-08   -0.22784E-06   576   0.314E-03
  31 F= -.87268141E+03 E0= -.87268141E+03  d E =0.207012E-03
       N       E                     dE             d eps       ncg     rms          rms(c)
DAV:   1    -0.872680907556E+03    0.49918E-03   -0.11623E-01   704   0.595E-01    0.759E-02
DAV:   2    -0.872681073649E+03   -0.16609E-03   -0.19317E-03   784   0.732E-02    0.469E-02
DAV:   3    -0.872681060252E+03    0.13397E-04   -0.36293E-05   808   0.124E-02    0.252E-02
DAV:   4    -0.872681058295E+03    0.19565E-05   -0.34201E-05   784   0.124E-02    0.565E-03
DAV:   5    -0.872681058092E+03    0.20375E-06   -0.50632E-06   704   0.477E-03
  32 F= -.87268106E+03 E0= -.87268106E+03  d E =0.348657E-03
       N       E                     dE             d eps       ncg     rms          rms(c)
DAV:   1    -0.872681075275E+03   -0.16980E-04   -0.25705E-04   720   0.295E-02    0.452E-03
DAV:   2    -0.872681075515E+03   -0.23992E-06   -0.45289E-06   672   0.385E-03
  33 F= -.87268108E+03 E0= -.87268108E+03  d E =-.174237E-04
       N       E                     dE             d eps       ncg     rms          rms(c)
DAV:   1    -0.872681133438E+03   -0.58163E-04   -0.39131E-03   720   0.109E-01    0.167E-02
DAV:   2    -0.872681138404E+03   -0.49658E-05   -0.63360E-05   784   0.137E-02    0.963E-03
DAV:   3    -0.872681137620E+03    0.78420E-06   -0.14631E-06   600   0.276E-03
  34 F= -.87268114E+03 E0= -.87268114E+03  d E =-.621047E-04
       N       E                     dE             d eps       ncg     rms          rms(c)
DAV:   1    -0.872680891657E+03    0.24675E-03   -0.39266E-02   704   0.349E-01    0.436E-02
DAV:   2    -0.872680949240E+03   -0.57582E-04   -0.67199E-04   768   0.436E-02    0.266E-02
DAV:   3    -0.872680943984E+03    0.52553E-05   -0.12372E-05   784   0.752E-03    0.147E-02
DAV:   4    -0.872680942895E+03    0.10896E-05   -0.13091E-05   800   0.805E-03    0.326E-03
DAV:   5    -0.872680942870E+03    0.24505E-07   -0.21820E-06   536   0.311E-03
  35 F= -.87268094E+03 E0= -.87268094E+03  d E =0.194750E-03
       N       E                     dE             d eps       ncg     rms          rms(c)
DAV:   1    -0.872680884795E+03    0.58099E-04   -0.31585E-03   720   0.996E-02    0.135E-02
DAV:   2    -0.872680889699E+03   -0.49035E-05   -0.57087E-05   784   0.129E-02    0.746E-03
DAV:   3    -0.872680889348E+03    0.35140E-06   -0.97970E-07   544   0.239E-03
  36 F= -.87268089E+03 E0= -.87268089E+03  d E =0.535226E-04
       N       E                     dE             d eps       ncg     rms          rms(c)
DAV:   1    -0.872680952569E+03   -0.62870E-04   -0.85230E-03   720   0.169E-01    0.268E-02
DAV:   2    -0.872680967029E+03   -0.14460E-04   -0.18015E-04   800   0.237E-02    0.134E-02
DAV:   3    -0.872680964888E+03    0.21407E-05   -0.42508E-06   720   0.501E-03    0.763E-03
DAV:   4    -0.872680964193E+03    0.69594E-06   -0.46235E-06   744   0.495E-03
  37 F= -.87268096E+03 E0= -.87268096E+03  d E =-.748449E-04
       N       E                     dE             d eps       ncg     rms          rms(c)
DAV:   1    -0.872681007455E+03   -0.42567E-04   -0.23076E-03   720   0.881E-02    0.177E-02
DAV:   2    -0.872681010870E+03   -0.34149E-05   -0.51267E-05   808   0.132E-02    0.754E-03
DAV:   3    -0.872681009976E+03    0.89392E-06   -0.16173E-06   544   0.333E-03
  38 F= -.87268101E+03 E0= -.87268101E+03  d E =-.457836E-04
       N       E                     dE             d eps       ncg     rms          rms(c)
DAV:   1    -0.872681063903E+03   -0.53033E-04   -0.46491E-03   704   0.123E-01    0.188E-02
DAV:   2    -0.872681070589E+03   -0.66857E-05   -0.84480E-05   800   0.162E-02    0.963E-03
DAV:   3    -0.872681069648E+03    0.94034E-06   -0.19095E-06   600   0.339E-03
  39 F= -.87268107E+03 E0= -.87268107E+03  d E =-.596723E-04
       N       E                     dE             d eps       ncg     rms          rms(c)
DAV:   1    -0.872681089312E+03   -0.18723E-04   -0.57954E-04   720   0.466E-02    0.106E-02
DAV:   2    -0.872681090229E+03   -0.91686E-06   -0.15803E-05   816   0.737E-03    0.410E-03
DAV:   3    -0.872681089892E+03    0.33722E-06   -0.56092E-07   496   0.220E-03
  40 F= -.87268109E+03 E0= -.87268109E+03  d E =-.202431E-04
       N       E                     dE             d eps       ncg     rms          rms(c)
DAV:   1    -0.872681149103E+03   -0.58874E-04   -0.47072E-03   712   0.123E-01    0.170E-02
DAV:   2    -0.872681156126E+03   -0.70225E-05   -0.84324E-05   792   0.158E-02    0.954E-03
DAV:   3    -0.872681155400E+03    0.72583E-06   -0.16598E-06   584   0.294E-03
  41 F= -.87268116E+03 E0= -.87268116E+03  d E =-.655083E-04
       N       E                     dE             d eps       ncg     rms          rms(c)
DAV:   1    -0.872681174303E+03   -0.18177E-04   -0.46898E-04   720   0.391E-02    0.733E-03
DAV:   2    -0.872681174901E+03   -0.59793E-06   -0.90809E-06   800   0.547E-03
  42 F= -.87268117E+03 E0= -.87268117E+03  d E =-.195009E-04
       N       E                     dE             d eps       ncg     rms          rms(c)
DAV:   1    -0.872681235194E+03   -0.60891E-04   -0.42953E-03   704   0.116E-01    0.157E-02
DAV:   2    -0.872681241159E+03   -0.59652E-05   -0.71784E-05   784   0.142E-02    0.972E-03
DAV:   3    -0.872681240543E+03    0.61596E-06   -0.14105E-06   600   0.260E-03
  43 F= -.87268124E+03 E0= -.87268124E+03  d E =-.656423E-04
       N       E                     dE             d eps       ncg     rms          rms(c)
DAV:   1    -0.872681259201E+03   -0.18042E-04   -0.39954E-04   720   0.349E-02    0.520E-03
DAV:   2    -0.872681259664E+03   -0.46302E-06   -0.58988E-06   728   0.423E-03
  44 F= -.87268126E+03 E0= -.87268126E+03  d E =-.191206E-04
       N       E                     dE             d eps       ncg     rms          rms(c)
DAV:   1    -0.872681360847E+03   -0.10165E-03   -0.15094E-02   704   0.217E-01    0.283E-02
DAV:   2    -0.872681382311E+03   -0.21463E-04   -0.25332E-04   784   0.268E-02    0.173E-02
DAV:   3    -0.872681380288E+03    0.20229E-05   -0.48951E-06   712   0.470E-03    0.921E-03
DAV:   4    -0.872681379989E+03    0.29919E-06   -0.47062E-06   696   0.473E-03
  45 F= -.87268138E+03 E0= -.87268138E+03  d E =-.120325E-03
       N       E                     dE             d eps       ncg     rms          rms(c)
DAV:   1    -0.872681377957E+03    0.23309E-05   -0.35190E-04   736   0.365E-02    0.903E-03
DAV:   2    -0.872681378440E+03   -0.48315E-06   -0.10200E-05   808   0.625E-03    0.328E-03
DAV:   3    -0.872681378190E+03    0.24986E-06   -0.49111E-07   480   0.187E-03
  46 F= -.87268138E+03 E0= -.87268138E+03  d E =0.179838E-05
       N       E                     dE             d eps       ncg     rms          rms(c)
DAV:   1    -0.872681433345E+03   -0.54904E-04   -0.47783E-03   704   0.119E-01    0.167E-02
DAV:   2    -0.872681439790E+03   -0.64452E-05   -0.78783E-05   792   0.151E-02    0.955E-03
DAV:   3    -0.872681438991E+03    0.79923E-06   -0.16518E-06   608   0.292E-03
  47 F= -.87268144E+03 E0= -.87268144E+03  d E =-.608003E-04
       N       E                     dE             d eps       ncg     rms          rms(c)
DAV:   1    -0.872681458247E+03   -0.18457E-04   -0.38425E-04   720   0.368E-02    0.734E-03
DAV:   2    -0.872681458875E+03   -0.62785E-06   -0.92895E-06   784   0.546E-03
  48 F= -.87268146E+03 E0= -.87268146E+03  d E =-.198844E-04
       N       E                     dE             d eps       ncg     rms          rms(c)
DAV:   1    -0.872681509714E+03   -0.51467E-04   -0.47771E-03   704   0.125E-01    0.209E-02
DAV:   2    -0.872681516455E+03   -0.67410E-05   -0.89379E-05   800   0.167E-02    0.103E-02
DAV:   3    -0.872681515257E+03    0.11978E-05   -0.22460E-06   600   0.379E-03    0.567E-03
DAV:   4    -0.872681514941E+03    0.31611E-06   -0.23697E-06   600   0.391E-03
  49 F= -.87268151E+03 E0= -.87268151E+03  d E =-.560660E-04
       N       E                     dE             d eps       ncg     rms          rms(c)
DAV:   1    -0.872681535362E+03   -0.20104E-04   -0.76516E-04   720   0.522E-02    0.124E-02
DAV:   2    -0.872681536268E+03   -0.90618E-06   -0.19284E-05   816   0.854E-03    0.451E-03
DAV:   3    -0.872681535836E+03    0.43216E-06   -0.93522E-07   504   0.259E-03
  50 F= -.87268154E+03 E0= -.87268154E+03  d E =-.208946E-04
       N       E                     dE             d eps       ncg     rms          rms(c)
DAV:   1    -0.872681591583E+03   -0.55315E-04   -0.41200E-03   704   0.114E-01    0.144E-02
DAV:   2    -0.872681597453E+03   -0.58700E-05   -0.69233E-05   784   0.141E-02    0.883E-03
DAV:   3    -0.872681596927E+03    0.52553E-06   -0.12542E-06   584   0.241E-03
  51 F= -.87268160E+03 E0= -.87268160E+03  d E =-.610917E-04
       N       E                     dE             d eps       ncg     rms          rms(c)
DAV:   1    -0.872681609732E+03   -0.12279E-04   -0.18429E-04   704   0.237E-02    0.364E-03
DAV:   2    -0.872681609918E+03   -0.18566E-06   -0.25665E-06   632   0.287E-03
  52 F= -.87268161E+03 E0= -.87268161E+03  d E =-.129904E-04
       N       E                     dE             d eps       ncg     rms          rms(c)
DAV:   1    -0.872681703704E+03   -0.93972E-04   -0.12920E-02   704   0.202E-01    0.256E-02
DAV:   2    -0.872681722390E+03   -0.18685E-04   -0.21896E-04   784   0.249E-02    0.160E-02
DAV:   3    -0.872681720759E+03    0.16312E-05   -0.41286E-06   688   0.432E-03    0.854E-03
DAV:   4    -0.872681720517E+03    0.24173E-06   -0.40206E-06   664   0.433E-03
  53 F= -.87268172E+03 E0= -.87268172E+03  d E =-.110599E-03
       N       E                     dE             d eps       ncg     rms          rms(c)
DAV:   1    -0.872681781785E+03   -0.61026E-04   -0.60942E-03   704   0.136E-01    0.209E-02
DAV:   2    -0.872681790353E+03   -0.85681E-05   -0.10686E-04   800   0.179E-02    0.108E-02
DAV:   3    -0.872681789298E+03    0.10552E-05   -0.23862E-06   608   0.369E-03    0.610E-03
DAV:   4    -0.872681789042E+03    0.25525E-06   -0.28247E-06   640   0.416E-03
  54 F= -.87268179E+03 E0= -.87268179E+03  d E =-.685255E-04
       N       E                     dE             d eps       ncg     rms          rms(c)
DAV:   1    -0.872681806195E+03   -0.16898E-04   -0.72105E-04   720   0.507E-02    0.125E-02
DAV:   2    -0.872681806999E+03   -0.80394E-06   -0.18332E-05   808   0.831E-03    0.435E-03
DAV:   3    -0.872681806574E+03    0.42474E-06   -0.91184E-07   504   0.254E-03
  55 F= -.87268181E+03 E0= -.87268181E+03  d E =-.175321E-04
       N       E                     dE             d eps       ncg     rms          rms(c)
DAV:   1    -0.872681811447E+03   -0.44475E-05   -0.40077E-04   736   0.348E-02    0.753E-03
DAV:   2    -0.872681811961E+03   -0.51472E-06   -0.88245E-06   792   0.537E-03
  56 F= -.87268181E+03 E0= -.87268181E+03  d E =-.538694E-05
       N       E                     dE             d eps       ncg     rms          rms(c)
DAV:   1    -0.872681819325E+03   -0.78784E-05   -0.17632E-04   752   0.245E-02    0.529E-03
DAV:   2    -0.872681819771E+03   -0.44570E-06   -0.54020E-06   712   0.404E-03
  57 F= -.87268182E+03 E0= -.87268182E+03  d E =-.780941E-05
       N       E                     dE             d eps       ncg     rms          rms(c)
DAV:   1    -0.872681872556E+03   -0.53231E-04   -0.42798E-03   704   0.119E-01    0.172E-02
DAV:   2    -0.872681879068E+03   -0.65119E-05   -0.80311E-05   792   0.156E-02    0.932E-03
DAV:   3    -0.872681878246E+03    0.82130E-06   -0.16141E-06   592   0.314E-03
  58 F= -.87268188E+03 E0= -.87268188E+03  d E =-.584757E-04
       N       E                     dE             d eps       ncg     rms          rms(c)
DAV:   1    -0.872681895286E+03   -0.16218E-04   -0.49582E-04   720   0.408E-02    0.837E-03
DAV:   2    -0.872681895952E+03   -0.66582E-06   -0.10692E-05   792   0.604E-03    0.354E-03
DAV:   3    -0.872681895761E+03    0.19064E-06   -0.39625E-07   472   0.179E-03
  59 F= -.87268190E+03 E0= -.87268190E+03  d E =-.175146E-04
       N       E                     dE             d eps       ncg     rms          rms(c)
DAV:   1    -0.872681951806E+03   -0.55854E-04   -0.44450E-03   704   0.119E-01    0.150E-02
DAV:   2    -0.872681958260E+03   -0.64539E-05   -0.75691E-05   784   0.148E-02    0.905E-03
DAV:   3    -0.872681957688E+03    0.57122E-06   -0.13681E-06   592   0.260E-03
  60 F= -.87268196E+03 E0= -.87268196E+03  d E =-.619274E-04
       N       E                     dE             d eps       ncg     rms          rms(c)
DAV:   1    -0.872681979227E+03   -0.20968E-04   -0.62141E-04   704   0.438E-02    0.637E-03
DAV:   2    -0.872681979993E+03   -0.76574E-06   -0.95660E-06   808   0.533E-03
  61 F= -.87268198E+03 E0= -.87268198E+03  d E =-.223047E-04
       N       E                     dE             d eps       ncg     rms          rms(c)
DAV:   1    -0.872682130101E+03   -0.15087E-03   -0.55434E-02   704   0.417E-01    0.527E-02
DAV:   2    -0.872682209130E+03   -0.79029E-04   -0.92726E-04   776   0.513E-02    0.326E-02
DAV:   3    -0.872682202105E+03    0.70250E-05   -0.17923E-05   816   0.877E-03    0.175E-02
DAV:   4    -0.872682200975E+03    0.11305E-05   -0.16575E-05   800   0.875E-03    0.376E-03
DAV:   5    -0.872682200917E+03    0.58048E-07   -0.25029E-06   576   0.335E-03
  62 F= -.87268220E+03 E0= -.87268220E+03  d E =-.220924E-03
       N       E                     dE             d eps       ncg     rms          rms(c)
DAV:   1    -0.872682293710E+03   -0.92735E-04   -0.15818E-02   704   0.221E-01    0.300E-02
DAV:   2    -0.872682317358E+03   -0.23649E-04   -0.27704E-04   784   0.284E-02    0.171E-02
DAV:   3    -0.872682315301E+03    0.20576E-05   -0.52410E-06   728   0.525E-03    0.960E-03
DAV:   4    -0.872682314971E+03    0.32927E-06   -0.62507E-06   752   0.581E-03
  63 F= -.87268231E+03 E0= -.87268231E+03  d E =-.114054E-03
       N       E                     dE             d eps       ncg     rms          rms(c)
DAV:   1    -0.872682066757E+03    0.24854E-03   -0.44097E-02   704   0.372E-01    0.466E-02
DAV:   2    -0.872682129779E+03   -0.63023E-04   -0.73989E-04   768   0.461E-02    0.283E-02
DAV:   3    -0.872682123712E+03    0.60667E-05   -0.14015E-05   808   0.796E-03    0.156E-02
DAV:   4    -0.872682122409E+03    0.13032E-05   -0.13771E-05   800   0.814E-03    0.318E-03
DAV:   5    -0.872682122399E+03    0.10470E-07   -0.22962E-06   560   0.317E-03
  64 F= -.87268212E+03 E0= -.87268212E+03  d E =0.192572E-03
       N       E                     dE             d eps       ncg     rms          rms(c)
DAV:   1    -0.872682227772E+03   -0.10536E-03   -0.21159E-02   704   0.255E-01    0.316E-02
DAV:   2    -0.872682256270E+03   -0.28498E-04   -0.34065E-04   776   0.311E-02    0.197E-02
DAV:   3    -0.872682253159E+03    0.31114E-05   -0.68974E-06   736   0.544E-03    0.106E-02
DAV:   4    -0.872682252519E+03    0.64020E-06   -0.63836E-06   760   0.546E-03
  65 F= -.87268225E+03 E0= -.87268225E+03  d E =-.130120E-03
       N       E                     dE             d eps       ncg     rms          rms(c)
DAV:   1    -0.872682289646E+03   -0.36487E-04   -0.14309E-03   704   0.679E-02    0.122E-02
DAV:   2    -0.872682291793E+03   -0.21471E-05   -0.30072E-05   808   0.979E-03    0.611E-03
DAV:   3    -0.872682291436E+03    0.35729E-06   -0.85780E-07   528   0.255E-03
  66 F= -.87268229E+03 E0= -.87268229E+03  d E =-.389174E-04
       N       E                     dE             d eps       ncg     rms          rms(c)
DAV:   1    -0.872682328370E+03   -0.36577E-04   -0.25992E-03   704   0.946E-02    0.170E-02
DAV:   2    -0.872682332239E+03   -0.38686E-05   -0.53592E-05   800   0.133E-02    0.746E-03
DAV:   3    -0.872682331439E+03    0.80022E-06   -0.14368E-06   552   0.330E-03
  67 F= -.87268233E+03 E0= -.87268233E+03  d E =-.400024E-04
       N       E                     dE             d eps       ncg     rms          rms(c)
DAV:   1    -0.872682346018E+03   -0.13779E-04   -0.54164E-04   704   0.440E-02    0.105E-02
DAV:   2    -0.872682346819E+03   -0.80170E-06   -0.14719E-05   808   0.723E-03    0.394E-03
DAV:   3    -0.872682346488E+03    0.33079E-06   -0.57179E-07   488   0.224E-03
  68 F= -.87268235E+03 E0= -.87268235E+03  d E =-.150499E-04
       N       E                     dE             d eps       ncg     rms          rms(c)
DAV:   1    -0.872682395812E+03   -0.48992E-04   -0.49910E-03   704   0.124E-01    0.174E-02
DAV:   2    -0.872682402744E+03   -0.69319E-05   -0.84668E-05   800   0.159E-02    0.959E-03
DAV:   3    -0.872682401890E+03    0.85335E-06   -0.17394E-06   608   0.315E-03
  69 F= -.87268240E+03 E0= -.87268240E+03  d E =-.554017E-04
       N       E                     dE             d eps       ncg     rms          rms(c)
DAV:   1    -0.872682419580E+03   -0.16837E-04   -0.41335E-04   720   0.382E-02    0.815E-03
DAV:   2    -0.872682420221E+03   -0.64101E-06   -0.10677E-05   808   0.594E-03    0.361E-03
DAV:   3    -0.872682420018E+03    0.20265E-06   -0.41694E-07   472   0.186E-03
  70 F= -.87268242E+03 E0= -.87268242E+03  d E =-.181283E-04
       N       E                     dE             d eps       ncg     rms          rms(c)
DAV:   1    -0.872682471359E+03   -0.51138E-04   -0.37505E-03   704   0.109E-01    0.139E-02
DAV:   2    -0.872682476902E+03   -0.55429E-05   -0.64917E-05   784   0.137E-02    0.846E-03
DAV:   3    -0.872682476423E+03    0.47839E-06   -0.11403E-06   576   0.238E-03
  71 F= -.87268248E+03 E0= -.87268248E+03  d E =-.564047E-04
       N       E                     dE             d eps       ncg     rms          rms(c)
DAV:   1    -0.872682487909E+03   -0.11008E-04   -0.17728E-04   712   0.238E-02    0.395E-03
DAV:   2    -0.872682488104E+03   -0.19453E-06   -0.27880E-06   648   0.304E-03
  72 F= -.87268249E+03 E0= -.87268249E+03  d E =-.116806E-04
       N       E                     dE             d eps       ncg     rms          rms(c)
DAV:   1    -0.872682546621E+03   -0.58711E-04   -0.50239E-03   704   0.126E-01    0.164E-02
DAV:   2    -0.872682553796E+03   -0.71752E-05   -0.85016E-05   784   0.156E-02    0.997E-03
DAV:   3    -0.872682553114E+03    0.68227E-06   -0.15863E-06   600   0.284E-03
  73 F= -.87268255E+03 E0= -.87268255E+03  d E =-.650099E-04
       N       E                     dE             d eps       ncg     rms          rms(c)
DAV:   1    -0.872682569414E+03   -0.15618E-04   -0.33928E-04   720   0.330E-02    0.526E-03
DAV:   2    -0.872682569814E+03   -0.40019E-06   -0.54967E-06   752   0.418E-03
  74 F= -.87268257E+03 E0= -.87268257E+03  d E =-.167004E-04
       N       E                     dE             d eps       ncg     rms          rms(c)
DAV:   1    -0.872682650686E+03   -0.81272E-04   -0.10719E-02   704   0.184E-01    0.237E-02
DAV:   2    -0.872682665969E+03   -0.15283E-04   -0.18100E-04   784   0.227E-02    0.147E-02
DAV:   3    -0.872682664553E+03    0.14157E-05   -0.35423E-06   680   0.408E-03    0.783E-03
DAV:   4    -0.872682664348E+03    0.20541E-06   -0.35098E-06   640   0.411E-03
  75 F= -.87268266E+03 E0= -.87268266E+03  d E =-.945339E-04
       N       E                     dE             d eps       ncg     rms          rms(c)
DAV:   1    -0.872682674482E+03   -0.99284E-05   -0.36363E-04   720   0.352E-02    0.776E-03
DAV:   2    -0.872682675033E+03   -0.55118E-06   -0.93688E-06   816   0.576E-03
  76 F= -.87268268E+03 E0= -.87268268E+03  d E =-.106850E-04
       N       E                     dE             d eps       ncg     rms          rms(c)
DAV:   1    -0.872682732260E+03   -0.57778E-04   -0.44377E-03   704   0.118E-01    0.160E-02
DAV:   2    -0.872682738729E+03   -0.64697E-05   -0.76418E-05   784   0.148E-02    0.963E-03
DAV:   3    -0.872682738157E+03    0.57266E-06   -0.13872E-06   592   0.257E-03
  77 F= -.87268274E+03 E0= -.87268274E+03  d E =-.631235E-04
       N       E                     dE             d eps       ncg     rms          rms(c)
DAV:   1    -0.872682727077E+03    0.11653E-04   -0.24046E-04   720   0.293E-02    0.609E-03
DAV:   2    -0.872682727542E+03   -0.46514E-06   -0.70542E-06   792   0.496E-03
  78 F= -.87268273E+03 E0= -.87268273E+03  d E =0.106148E-04
       N       E                     dE             d eps       ncg     rms          rms(c)
DAV:   1    -0.872682732690E+03   -0.56131E-05   -0.87606E-05   712   0.181E-02    0.370E-03
DAV:   2    -0.872682732951E+03   -0.26163E-06   -0.29562E-06   616   0.310E-03
  79 F= -.87268273E+03 E0= -.87268273E+03  d E =-.540960E-05
       N       E                     dE             d eps       ncg     rms          rms(c)
DAV:   1    -0.872682782132E+03   -0.49442E-04   -0.46807E-03   704   0.124E-01    0.175E-02
DAV:   2    -0.872682789260E+03   -0.71282E-05   -0.86725E-05   784   0.164E-02    0.927E-03
DAV:   3    -0.872682788391E+03    0.86892E-06   -0.17913E-06   600   0.338E-03
  80 F= -.87268279E+03 E0= -.87268279E+03  d E =-.554399E-04
       N       E                     dE             d eps       ncg     rms          rms(c)
DAV:   1    -0.872682806679E+03   -0.17419E-04   -0.56733E-04   704   0.454E-02    0.937E-03
DAV:   2    -0.872682807576E+03   -0.89654E-06   -0.14038E-05   800   0.687E-03    0.393E-03
DAV:   3    -0.872682807310E+03    0.26612E-06   -0.46669E-07   488   0.209E-03
  81 F= -.87268281E+03 E0= -.87268281E+03  d E =-.189187E-04
       N       E                     dE             d eps       ncg     rms          rms(c)
DAV:   1    -0.872682856142E+03   -0.48566E-04   -0.37083E-03   704   0.109E-01    0.143E-02
DAV:   2    -0.872682861677E+03   -0.55351E-05   -0.65757E-05   784   0.139E-02    0.847E-03
DAV:   3    -0.872682861156E+03    0.52017E-06   -0.12223E-06   576   0.259E-03
  82 F= -.87268286E+03 E0= -.87268286E+03  d E =-.538466E-04
       N       E                     dE             d eps       ncg     rms          rms(c)
DAV:   1    -0.872682877332E+03   -0.15655E-04   -0.44679E-04   704   0.384E-02    0.673E-03
DAV:   2    -0.872682877918E+03   -0.58661E-06   -0.83434E-06   792   0.521E-03
  83 F= -.87268288E+03 E0= -.87268288E+03  d E =-.167620E-04
       N       E                     dE             d eps       ncg     rms          rms(c)
DAV:   1    -0.872682927154E+03   -0.49822E-04   -0.35064E-03   704   0.106E-01    0.143E-02
DAV:   2    -0.872682932051E+03   -0.48975E-05   -0.59794E-05   784   0.132E-02    0.879E-03
DAV:   3    -0.872682931506E+03    0.54576E-06   -0.12222E-06   576   0.264E-03
  84 F= -.87268293E+03 E0= -.87268293E+03  d E =-.535872E-04
       N       E                     dE             d eps       ncg     rms          rms(c)
DAV:   1    -0.872682941081E+03   -0.90296E-05   -0.12288E-04   704   0.198E-02    0.321E-03
DAV:   2    -0.872682941195E+03   -0.11388E-06   -0.18063E-06   560   0.250E-03
  85 F= -.87268294E+03 E0= -.87268294E+03  d E =-.968926E-05
       N       E                     dE             d eps       ncg     rms          rms(c)
DAV:   1    -0.872682972197E+03   -0.31116E-04   -0.13649E-03   704   0.667E-02    0.851E-03
DAV:   2    -0.872682974227E+03   -0.20295E-05   -0.23934E-05   792   0.828E-03    0.526E-03
DAV:   3    -0.872682974049E+03    0.17766E-06   -0.39917E-07   480   0.149E-03
  86 F= -.87268297E+03 E0= -.87268297E+03  d E =-.328544E-04
       N       E                     dE             d eps       ncg     rms          rms(c)
DAV:   1    -0.872683009747E+03   -0.35520E-04   -0.18853E-03   704   0.778E-02    0.943E-03
DAV:   2    -0.872683012409E+03   -0.26622E-05   -0.31083E-05   784   0.945E-03    0.554E-03
DAV:   3    -0.872683012234E+03    0.17524E-06   -0.55921E-07   512   0.159E-03
  87 F= -.87268301E+03 E0= -.87268301E+03  d E =-.381846E-04
       N       E                     dE             d eps       ncg     rms          rms(c)
DAV:   1    -0.872683018507E+03   -0.60977E-05   -0.49521E-05   656   0.126E-02    0.197E-03
DAV:   2    -0.872683018564E+03   -0.57473E-07   -0.73062E-07   456   0.159E-03
  88 F= -.87268302E+03 E0= -.87268302E+03  d E =-.633043E-05
       N       E                     dE             d eps       ncg     rms          rms(c)
DAV:   1    -0.872683114498E+03   -0.95991E-04   -0.17285E-02   704   0.234E-01    0.289E-02
DAV:   2    -0.872683139810E+03   -0.25312E-04   -0.29585E-04   776   0.290E-02    0.178E-02
DAV:   3    -0.872683137721E+03    0.20881E-05   -0.55839E-06   720   0.499E-03    0.978E-03
DAV:   4    -0.872683137305E+03    0.41640E-06   -0.54715E-06   744   0.517E-03
  89 F= -.87268314E+03 E0= -.87268314E+03  d E =-.118741E-03
       N       E                     dE             d eps       ncg     rms          rms(c)
DAV:   1    -0.872683250325E+03   -0.11260E-03   -0.27728E-01   704   0.926E-01    0.115E-01
DAV:   2    -0.872683646285E+03   -0.39596E-03   -0.46167E-03   768   0.114E-01    0.706E-02
DAV:   3    -0.872683614088E+03    0.32197E-04   -0.87217E-05   808   0.192E-02    0.386E-02
DAV:   4    -0.872683608285E+03    0.58029E-05   -0.83956E-05   808   0.201E-02    0.852E-03
DAV:   5    -0.872683608036E+03    0.24901E-06   -0.13615E-05   800   0.768E-03    0.720E-03
DAV:   6    -0.872683607621E+03    0.41471E-06   -0.38372E-06   704   0.424E-03
  90 F= -.87268361E+03 E0= -.87268361E+03  d E =-.470316E-03
       N       E                     dE             d eps       ncg     rms          rms(c)
DAV:   1    -0.872683315239E+03    0.29280E-03   -0.56479E-02   704   0.422E-01    0.521E-02
DAV:   2    -0.872683396856E+03   -0.81617E-04   -0.96020E-04   784   0.520E-02    0.324E-02
DAV:   3    -0.872683389789E+03    0.70666E-05   -0.18397E-05   816   0.875E-03    0.177E-02
DAV:   4    -0.872683388272E+03    0.15167E-05   -0.16910E-05   800   0.905E-03    0.379E-03
DAV:   5    -0.872683388239E+03    0.32960E-07   -0.26956E-06   616   0.354E-03
  91 F= -.87268339E+03 E0= -.87268339E+03  d E =0.219382E-03
       N       E                     dE             d eps       ncg     rms          rms(c)
DAV:   1    -0.872683104837E+03    0.28344E-03   -0.58716E-02   704   0.425E-01    0.528E-02
DAV:   2    -0.872683188898E+03   -0.84060E-04   -0.97822E-04   776   0.527E-02    0.320E-02
DAV:   3    -0.872683182000E+03    0.68979E-05   -0.18668E-05   816   0.912E-03    0.176E-02
DAV:   4    -0.872683180874E+03    0.11253E-05   -0.18924E-05   792   0.959E-03    0.421E-03
DAV:   5    -0.872683180779E+03    0.95810E-07   -0.29901E-06   616   0.372E-03
  92 F= -.87268318E+03 E0= -.87268318E+03  d E =0.207461E-03
       N       E                     dE             d eps       ncg     rms          rms(c)
DAV:   1    -0.872683250866E+03   -0.69991E-04   -0.95170E-03   704   0.172E-01    0.236E-02
DAV:   2    -0.872683263281E+03   -0.12415E-04   -0.15664E-04   800   0.217E-02    0.134E-02
DAV:   3    -0.872683261399E+03    0.18813E-05   -0.35840E-06   664   0.429E-03    0.732E-03
DAV:   4    -0.872683260863E+03    0.53595E-06   -0.33165E-06   648   0.428E-03
  93 F= -.87268326E+03 E0= -.87268326E+03  d E =-.800847E-04
       N       E                     dE             d eps       ncg     rms          rms(c)
DAV:   1    -0.872683251951E+03    0.94483E-05   -0.82358E-04   704   0.552E-02    0.121E-02
DAV:   2    -0.872683253011E+03   -0.10603E-05   -0.20458E-05   816   0.880E-03    0.449E-03
DAV:   3    -0.872683252497E+03    0.51481E-06   -0.85767E-07   512   0.269E-03
  94 F= -.87268325E+03 E0= -.87268325E+03  d E =0.836687E-05
       N       E                     dE             d eps       ncg     rms          rms(c)
DAV:   1    -0.872683298569E+03   -0.45558E-04   -0.45733E-03   704   0.126E-01    0.204E-02
DAV:   2    -0.872683306138E+03   -0.75683E-05   -0.97945E-05   800   0.180E-02    0.960E-03
DAV:   3    -0.872683304946E+03    0.11913E-05   -0.24608E-06   608   0.430E-03    0.560E-03
DAV:   4    -0.872683304382E+03    0.56400E-06   -0.24876E-06   616   0.485E-03
  95 F= -.87268330E+03 E0= -.87268330E+03  d E =-.518857E-04
       N       E                     dE             d eps       ncg     rms          rms(c)
DAV:   1    -0.872683325108E+03   -0.20162E-04   -0.10461E-03   704   0.613E-02    0.138E-02
DAV:   2    -0.872683326345E+03   -0.12371E-05   -0.25532E-05   816   0.978E-03    0.509E-03
DAV:   3    -0.872683325727E+03    0.61862E-06   -0.11230E-06   528   0.312E-03
  96 F= -.87268333E+03 E0= -.87268333E+03  d E =-.213444E-04
       N       E                     dE             d eps       ncg     rms          rms(c)
DAV:   1    -0.872683372480E+03   -0.46135E-04   -0.46975E-03   704   0.123E-01    0.177E-02
DAV:   2    -0.872683379119E+03   -0.66384E-05   -0.82418E-05   800   0.159E-02    0.926E-03
DAV:   3    -0.872683378232E+03    0.88671E-06   -0.17780E-06   608   0.328E-03
  97 F= -.87268338E+03 E0= -.87268338E+03  d E =-.525054E-04
       N       E                     dE             d eps       ncg     rms          rms(c)
DAV:   1    -0.872683395570E+03   -0.16451E-04   -0.48187E-04   704   0.426E-02    0.950E-03
DAV:   2    -0.872683396323E+03   -0.75309E-06   -0.13194E-05   792   0.679E-03    0.381E-03
DAV:   3    -0.872683396047E+03    0.27617E-06   -0.48497E-07   504   0.209E-03
  98 F= -.87268340E+03 E0= -.87268340E+03  d E =-.178151E-04
       N       E                     dE             d eps       ncg     rms          rms(c)
DAV:   1    -0.872683442983E+03   -0.46660E-04   -0.37585E-03   704   0.111E-01    0.155E-02
DAV:   2    -0.872683448714E+03   -0.57302E-05   -0.69828E-05   792   0.146E-02    0.849E-03
DAV:   3    -0.872683448086E+03    0.62776E-06   -0.14546E-06   600   0.301E-03
  99 F= -.87268345E+03 E0= -.87268345E+03  d E =-.520387E-04
       N       E                     dE             d eps       ncg     rms          rms(c)
DAV:   1    -0.872683464085E+03   -0.15372E-04   -0.51154E-04   704   0.423E-02    0.836E-03
DAV:   2    -0.872683464766E+03   -0.68029E-06   -0.11136E-05   800   0.614E-03    0.347E-03
DAV:   3    -0.872683464559E+03    0.20701E-06   -0.38074E-07   480   0.181E-03
 100 F= -.87268346E+03 E0= -.87268346E+03  d E =-.164728E-04
       N       E                     dE             d eps       ncg     rms          rms(c)
DAV:   1    -0.872683513232E+03   -0.48467E-04   -0.38711E-03   704   0.111E-01    0.139E-02
DAV:   2    -0.872683518850E+03   -0.56177E-05   -0.66033E-05   784   0.139E-02    0.836E-03
DAV:   3    -0.872683518323E+03    0.52662E-06   -0.11534E-06   568   0.249E-03
 101 F= -.87268352E+03 E0= -.87268352E+03  d E =-.537648E-04
       N       E                     dE             d eps       ncg     rms          rms(c)
DAV:   1    -0.872683532913E+03   -0.14063E-04   -0.29967E-04   720   0.315E-02    0.510E-03
DAV:   2    -0.872683533304E+03   -0.39100E-06   -0.51838E-06   736   0.407E-03
 102 F= -.87268353E+03 E0= -.87268353E+03  d E =-.149804E-04
       N       E                     dE             d eps       ncg     rms          rms(c)
DAV:   1    -0.872683639857E+03   -0.10694E-03   -0.25059E-02   704   0.283E-01    0.353E-02
DAV:   2    -0.872683676394E+03   -0.36537E-04   -0.42752E-04   776   0.350E-02    0.218E-02
DAV:   3    -0.872683673328E+03    0.30662E-05   -0.80963E-06   760   0.602E-03    0.119E-02
DAV:   4    -0.872683672821E+03    0.50672E-06   -0.80265E-06   776   0.618E-03
 103 F= -.87268367E+03 E0= -.87268367E+03  d E =-.139517E-03
       N       E                     dE             d eps       ncg     rms          rms(c)
DAV:   1    -0.872683818237E+03   -0.14491E-03   -0.10945E-01   704   0.580E-01    0.742E-02
DAV:   2    -0.872683973553E+03   -0.15532E-03   -0.18225E-03   776   0.721E-02    0.450E-02
DAV:   3    -0.872683960617E+03    0.12936E-04   -0.36095E-05   816   0.126E-02    0.247E-02
DAV:   4    -0.872683958312E+03    0.23047E-05   -0.34102E-05   808   0.129E-02    0.559E-03
DAV:   5    -0.872683958152E+03    0.16033E-06   -0.55500E-06   720   0.508E-03
 104 F= -.87268396E+03 E0= -.87268396E+03  d E =-.285330E-03
       N       E                     dE             d eps       ncg     rms          rms(c)
DAV:   1    -0.872683583359E+03    0.37495E-03   -0.92049E-02   704   0.537E-01    0.669E-02
DAV:   2    -0.872683712731E+03   -0.12937E-03   -0.15338E-03   768   0.664E-02    0.413E-02
DAV:   3    -0.872683700269E+03    0.12462E-04   -0.30922E-05   816   0.117E-02    0.226E-02
DAV:   4    -0.872683697604E+03    0.26650E-05   -0.28273E-05   808   0.117E-02    0.471E-03
DAV:   5    -0.872683697571E+03    0.33702E-07   -0.47467E-06   680   0.459E-03
 105 F= -.87268370E+03 E0= -.87268370E+03  d E =0.260581E-03
       N       E                     dE             d eps       ncg     rms          rms(c)
DAV:   1    -0.872683754161E+03   -0.56557E-04   -0.51850E-03   704   0.128E-01    0.163E-02
DAV:   2    -0.872683760939E+03   -0.67775E-05   -0.84507E-05   768   0.157E-02    0.100E-02
DAV:   3    -0.872683759974E+03    0.96435E-06   -0.17611E-06   608   0.291E-03
 106 F= -.87268376E+03 E0= -.87268376E+03  d E =-.624036E-04
       N       E                     dE             d eps       ncg     rms          rms(c)
DAV:   1    -0.872683779006E+03   -0.18067E-04   -0.51802E-04   704   0.419E-02    0.800E-03
DAV:   2    -0.872683779710E+03   -0.70468E-06   -0.10388E-05   792   0.587E-03    0.357E-03
DAV:   3    -0.872683779543E+03    0.16775E-06   -0.33812E-07   480   0.172E-03
 107 F= -.87268378E+03 E0= -.87268378E+03  d E =-.195682E-04
       N       E                     dE             d eps       ncg     rms          rms(c)
DAV:   1    -0.872683930586E+03   -0.15088E-03   -0.82629E-02   704   0.506E-01    0.640E-02
DAV:   2    -0.872684047149E+03   -0.11656E-03   -0.13649E-03   768   0.622E-02    0.396E-02
DAV:   3    -0.872684037051E+03    0.10097E-04   -0.26166E-05   808   0.105E-02    0.213E-02
DAV:   4    -0.872684035277E+03    0.17744E-05   -0.24316E-05   800   0.106E-02    0.453E-03
DAV:   5    -0.872684035187E+03    0.89916E-07   -0.37213E-06   664   0.407E-03
 108 F= -.87268404E+03 E0= -.87268404E+03  d E =-.255645E-03
       N       E                     dE             d eps       ncg     rms          rms(c)
DAV:   1    -0.872683823453E+03    0.21182E-03   -0.36624E-02   704   0.336E-01    0.458E-02
DAV:   2    -0.872683872807E+03   -0.49354E-04   -0.60270E-04   776   0.420E-02    0.271E-02
DAV:   3    -0.872683866762E+03    0.60449E-05   -0.13055E-05   816   0.810E-03    0.146E-02
DAV:   4    -0.872683865350E+03    0.14122E-05   -0.11821E-05   800   0.826E-03    0.285E-03
DAV:   5    -0.872683865396E+03   -0.46675E-07   -0.24868E-06   576   0.333E-03
 109 F= -.87268387E+03 E0= -.87268387E+03  d E =0.169791E-03
       N       E                     dE             d eps       ncg     rms          rms(c)
DAV:   1    -0.872683892860E+03   -0.27510E-04   -0.12264E-03   704   0.639E-02    0.107E-02
DAV:   2    -0.872683894344E+03   -0.14842E-05   -0.23517E-05   808   0.898E-03    0.522E-03
DAV:   3    -0.872683893869E+03    0.47454E-06   -0.74688E-07   528   0.237E-03
 110 F= -.87268389E+03 E0= -.87268389E+03  d E =-.284730E-04
       N       E                     dE             d eps       ncg     rms          rms(c)
DAV:   1    -0.872683961952E+03   -0.67608E-04   -0.81458E-03   704   0.160E-01    0.201E-02
DAV:   2    -0.872683973396E+03   -0.11444E-04   -0.13456E-04   768   0.196E-02    0.123E-02
DAV:   3    -0.872683972397E+03    0.99935E-06   -0.24900E-06   616   0.335E-03
 111 F= -.87268397E+03 E0= -.87268397E+03  d E =-.785276E-04
       N       E                     dE             d eps       ncg     rms          rms(c)
DAV:   1    -0.872683991161E+03   -0.17765E-04   -0.46543E-04   704   0.384E-02    0.560E-03
DAV:   2    -0.872683991706E+03   -0.54474E-06   -0.69569E-06   768   0.461E-03
 112 F= -.87268399E+03 E0= -.87268399E+03  d E =-.193091E-04
       N       E                     dE             d eps       ncg     rms          rms(c)
DAV:   1    -0.872684107315E+03   -0.11615E-03   -0.33848E-02   704   0.327E-01    0.410E-02
DAV:   2    -0.872684155576E+03   -0.48261E-04   -0.56588E-04   776   0.402E-02    0.253E-02
DAV:   3    -0.872684151309E+03    0.42672E-05   -0.10845E-05   792   0.689E-03    0.137E-02
DAV:   4    -0.872684150630E+03    0.67910E-06   -0.10546E-05   784   0.701E-03    0.306E-03
DAV:   5    -0.872684150585E+03    0.44514E-07   -0.15567E-06   504   0.268E-03
 113 F= -.87268415E+03 E0= -.87268415E+03  d E =-.158879E-03
       N       E                     dE             d eps       ncg     rms          rms(c)
DAV:   1    -0.872684288258E+03   -0.13763E-03   -0.77394E-02   704   0.491E-01    0.600E-02
DAV:   2    -0.872684399985E+03   -0.11173E-03   -0.12903E-03   768   0.606E-02    0.370E-02
DAV:   3    -0.872684391147E+03    0.88388E-05   -0.23753E-05   816   0.101E-02    0.203E-02
DAV:   4    -0.872684389610E+03    0.15365E-05   -0.23531E-05   800   0.106E-02    0.458E-03
DAV:   5    -0.872684389516E+03    0.93954E-07   -0.36790E-06   664   0.405E-03
 114 F= -.87268439E+03 E0= -.87268439E+03  d E =-.238931E-03
       N       E                     dE             d eps       ncg     rms          rms(c)
DAV:   1    -0.872684513899E+03   -0.12429E-03   -0.16947E-01   704   0.728E-01    0.891E-02
DAV:   2    -0.872684759952E+03   -0.24605E-03   -0.28408E-03   768   0.899E-02    0.547E-02
DAV:   3    -0.872684740691E+03    0.19261E-04   -0.52088E-05   816   0.149E-02    0.302E-02
DAV:   4    -0.872684737248E+03    0.34431E-05   -0.51548E-05   816   0.158E-02    0.675E-03
DAV:   5    -0.872684737078E+03    0.16960E-06   -0.82775E-06   792   0.599E-03
 115 F= -.87268474E+03 E0= -.87268474E+03  d E =-.347562E-03
       N       E                     dE             d eps       ncg     rms          rms(c)
DAV:   1    -0.872684060520E+03    0.67673E-03   -0.22266E-01   704   0.835E-01    0.102E-01
DAV:   2    -0.872684372235E+03   -0.31172E-03   -0.36662E-03   760   0.102E-01    0.636E-02
DAV:   3    -0.872684342997E+03    0.29238E-04   -0.71885E-05   816   0.173E-02    0.346E-02
DAV:   4    -0.872684337017E+03    0.59801E-05   -0.65052E-05   792   0.173E-02    0.701E-03
DAV:   5    -0.872684336980E+03    0.36387E-07   -0.10544E-05   800   0.663E-03    0.598E-03
DAV:   6    -0.872684336697E+03    0.28324E-06   -0.24504E-06   600   0.346E-03
 116 F= -.87268434E+03 E0= -.87268434E+03  d E =0.400381E-03
       N       E                     dE             d eps       ncg     rms          rms(c)
DAV:   1    -0.872684481582E+03   -0.14460E-03   -0.13483E-01   704   0.649E-01    0.789E-02
DAV:   2    -0.872684672270E+03   -0.19069E-03   -0.22317E-03   760   0.798E-02    0.489E-02
DAV:   3    -0.872684655651E+03    0.16620E-04   -0.43170E-05   816   0.134E-02    0.269E-02
DAV:   4    -0.872684652222E+03    0.34281E-05   -0.40554E-05   784   0.138E-02    0.578E-03
DAV:   5    -0.872684652130E+03    0.92856E-07   -0.64933E-06   752   0.533E-03
 117 F= -.87268465E+03 E0= -.87268465E+03  d E =-.315433E-03
       N       E                     dE             d eps       ncg     rms          rms(c)
DAV:   1    -0.872684777837E+03   -0.12561E-03   -0.11090E-01   704   0.589E-01    0.719E-02
DAV:   2    -0.872684940860E+03   -0.16302E-03   -0.18726E-03   768   0.729E-02    0.440E-02
DAV:   3    -0.872684928737E+03    0.12124E-04   -0.33706E-05   816   0.121E-02    0.244E-02
DAV:   4    -0.872684926706E+03    0.20309E-05   -0.34211E-05   800   0.130E-02    0.564E-03
DAV:   5    -0.872684926557E+03    0.14886E-06   -0.54825E-06   744   0.493E-03
 118 F= -.87268493E+03 E0= -.87268493E+03  d E =-.274427E-03
       N       E                     dE             d eps       ncg     rms          rms(c)
DAV:   1    -0.872684756591E+03    0.17011E-03   -0.28095E-02   704   0.297E-01    0.363E-02
DAV:   2    -0.872684794964E+03   -0.38374E-04   -0.45798E-04   768   0.362E-02    0.228E-02
DAV:   3    -0.872684790849E+03    0.41151E-05   -0.92500E-06   760   0.622E-03    0.123E-02
DAV:   4    -0.872684789988E+03    0.86128E-06   -0.81768E-06   768   0.610E-03
 119 F= -.87268479E+03 E0= -.87268479E+03  d E =0.136569E-03
       N       E                     dE             d eps       ncg     rms          rms(c)
DAV:   1    -0.872684652327E+03    0.13852E-03   -0.18523E-02   704   0.245E-01    0.304E-02
DAV:   2    -0.872684680724E+03   -0.28398E-04   -0.32743E-04   784   0.309E-02    0.175E-02
DAV:   3    -0.872684678734E+03    0.19897E-05   -0.61254E-06   736   0.527E-03    0.995E-03
DAV:   4    -0.872684678274E+03    0.46026E-06   -0.59540E-06   736   0.582E-03
 120 F= -.87268468E+03 E0= -.87268468E+03  d E =0.111714E-03
       N       E                     dE             d eps       ncg     rms          rms(c)
DAV:   1    -0.872684512242E+03    0.16649E-03   -0.26595E-02   704   0.293E-01    0.353E-02
DAV:   2    -0.872684552868E+03   -0.40626E-04   -0.46950E-04   776   0.369E-02    0.208E-02
DAV:   3    -0.872684550009E+03    0.28593E-05   -0.87558E-06   784   0.623E-03    0.119E-02
DAV:   4    -0.872684549389E+03    0.61982E-06   -0.89861E-06   760   0.707E-03
 121 F= -.87268455E+03 E0= -.87268455E+03  d E =0.128885E-03
       N       E                     dE             d eps       ncg     rms          rms(c)
DAV:   1    -0.872684457466E+03    0.92543E-04   -0.95397E-03   704   0.176E-01    0.211E-02
DAV:   2    -0.872684472334E+03   -0.14868E-04   -0.17165E-04   784   0.224E-02    0.124E-02
DAV:   3    -0.872684471500E+03    0.83372E-06   -0.31913E-06   640   0.377E-03
 122 F= -.87268447E+03 E0= -.87268447E+03  d E =0.778890E-04
       N       E                     dE             d eps       ncg     rms          rms(c)
DAV:   1    -0.872684410953E+03    0.61381E-04   -0.56822E-03   704   0.147E-01    0.257E-02
DAV:   2    -0.872684420707E+03   -0.97536E-05   -0.13388E-04   808   0.217E-02    0.106E-02
DAV:   3    -0.872684418597E+03    0.21094E-05   -0.42635E-06   736   0.566E-03    0.598E-03
DAV:   4    -0.872684417652E+03    0.94499E-06   -0.34904E-06   696   0.564E-03
 123 F= -.87268442E+03 E0= -.87268442E+03  d E =0.538478E-04
       N       E                     dE             d eps       ncg     rms          rms(c)
DAV:   1    -0.872684381007E+03    0.37591E-04   -0.47168E-03   704   0.131E-01    0.220E-02
DAV:   2    -0.872684388777E+03   -0.77708E-05   -0.10528E-04   800   0.190E-02    0.941E-03
DAV:   3    -0.872684387348E+03    0.14295E-05   -0.30358E-06   648   0.476E-03    0.543E-03
DAV:   4    -0.872684386753E+03    0.59460E-06   -0.28142E-06   632   0.485E-03
 124 F= -.87268439E+03 E0= -.87268439E+03  d E =0.308990E-04
       N       E                     dE             d eps       ncg     rms          rms(c)
DAV:   1    -0.872684419374E+03   -0.32027E-04   -0.85195E-03   704   0.174E-01    0.288E-02
DAV:   2    -0.872684434296E+03   -0.14922E-04   -0.18874E-04   800   0.248E-02    0.128E-02
DAV:   3    -0.872684431593E+03    0.27033E-05   -0.44798E-06   736   0.559E-03    0.718E-03
DAV:   4    -0.872684430535E+03    0.10576E-05   -0.50879E-06   752   0.604E-03    0.201E-03
DAV:   5    -0.872684430537E+03   -0.15571E-08   -0.13804E-06   528   0.272E-03
 125 F= -.87268443E+03 E0= -.87268443E+03  d E =-.437838E-04
       N       E                     dE             d eps       ncg     rms          rms(c)
DAV:   1    -0.872684456398E+03   -0.25862E-04   -0.15045E-03   704   0.753E-02    0.181E-02
DAV:   2    -0.872684459169E+03   -0.27715E-05   -0.46561E-05   816   0.128E-02    0.672E-03
DAV:   3    -0.872684458051E+03    0.11178E-05   -0.15860E-06   520   0.375E-03    0.367E-03
DAV:   4    -0.872684457649E+03    0.40206E-06   -0.20486E-06   560   0.393E-03
 126 F= -.87268446E+03 E0= -.87268446E+03  d E =-.271124E-04
       N       E                     dE             d eps       ncg     rms          rms(c)
DAV:   1    -0.872684500028E+03   -0.41976E-04   -0.35571E-03   704   0.108E-01    0.153E-02
DAV:   2    -0.872684505722E+03   -0.56946E-05   -0.70019E-05   792   0.148E-02    0.861E-03
DAV:   3    -0.872684505035E+03    0.68736E-06   -0.14404E-06   576   0.304E-03
 127 F= -.87268451E+03 E0= -.87268451E+03  d E =-.473855E-04
       N       E                     dE             d eps       ncg     rms          rms(c)
DAV:   1    -0.872684521997E+03   -0.16275E-04   -0.54274E-04   704   0.436E-02    0.784E-03
DAV:   2    -0.872684522777E+03   -0.77958E-06   -0.11687E-05   808   0.632E-03    0.384E-03
DAV:   3    -0.872684522576E+03    0.20086E-06   -0.54660E-07   456   0.201E-03
 128 F= -.87268452E+03 E0= -.87268452E+03  d E =-.175411E-04
       N       E                     dE             d eps       ncg     rms          rms(c)
DAV:   1    -0.872684549985E+03   -0.27208E-04   -0.12471E-03   704   0.641E-02    0.816E-03
DAV:   2    -0.872684551875E+03   -0.18901E-05   -0.22017E-05   784   0.802E-03    0.484E-03
DAV:   3    -0.872684551716E+03    0.15879E-06   -0.35525E-07   488   0.136E-03
 129 F= -.87268455E+03 E0= -.87268455E+03  d E =-.291405E-04
       N       E                     dE             d eps       ncg     rms          rms(c)
DAV:   1    -0.872684584377E+03   -0.32502E-04   -0.18246E-03   704   0.767E-02    0.929E-03
DAV:   2    -0.872684587017E+03   -0.26398E-05   -0.30632E-05   784   0.940E-03    0.546E-03
DAV:   3    -0.872684586835E+03    0.18135E-06   -0.52945E-07   504   0.162E-03
 130 F= -.87268459E+03 E0= -.87268459E+03  d E =-.351189E-04
       N       E                     dE             d eps       ncg     rms          rms(c)
DAV:   1    -0.872684599349E+03   -0.12332E-04   -0.28376E-04   704   0.307E-02    0.447E-03
DAV:   2    -0.872684599739E+03   -0.39041E-06   -0.47240E-06   672   0.384E-03
 131 F= -.87268460E+03 E0= -.87268460E+03  d E =-.129037E-04
       N       E                     dE             d eps       ncg     rms          rms(c)
DAV:   1    -0.872684705923E+03   -0.10657E-03   -0.16272E-01   704   0.723E-01    0.862E-02
DAV:   2    -0.872684946382E+03   -0.24046E-03   -0.27802E-03   760   0.894E-02    0.533E-02
DAV:   3    -0.872684926972E+03    0.19411E-04   -0.51057E-05   816   0.148E-02    0.296E-02
DAV:   4    -0.872684923079E+03    0.38924E-05   -0.51193E-05   792   0.159E-02    0.664E-03
DAV:   5    -0.872684922965E+03    0.11400E-06   -0.85238E-06   792   0.611E-03
 132 F= -.87268492E+03 E0= -.87268492E+03  d E =-.323226E-03
       N       E                     dE             d eps       ncg     rms          rms(c)
DAV:   1    -0.872685027333E+03   -0.10425E-03   -0.14817E-01   704   0.688E-01    0.820E-02
DAV:   2    -0.872685251133E+03   -0.22380E-03   -0.25592E-03   768   0.858E-02    0.497E-02
DAV:   3    -0.872685235304E+03    0.15828E-04   -0.45397E-05   816   0.142E-02    0.281E-02
DAV:   4    -0.872685232365E+03    0.29394E-05   -0.48903E-05   808   0.159E-02    0.687E-03
DAV:   5    -0.872685232162E+03    0.20324E-06   -0.81768E-06   792   0.606E-03
 133 F= -.87268523E+03 E0= -.87268523E+03  d E =-.309196E-03
       N       E                     dE             d eps       ncg     rms          rms(c)
DAV:   1    -0.872685075725E+03    0.15664E-03   -0.25947E-02   704   0.288E-01    0.342E-02
DAV:   2    -0.872685111731E+03   -0.36006E-04   -0.42966E-04   768   0.354E-02    0.215E-02
DAV:   3    -0.872685107811E+03    0.39202E-05   -0.85515E-06   760   0.603E-03    0.118E-02
DAV:   4    -0.872685106943E+03    0.86748E-06   -0.82283E-06   776   0.613E-03
 134 F= -.87268511E+03 E0= -.87268511E+03  d E =0.125219E-03
       N       E                     dE             d eps       ncg     rms          rms(c)
DAV:   1    -0.872684391689E+03    0.71612E-03   -0.23783E-01   704   0.875E-01    0.103E-01
DAV:   2    -0.872684748622E+03   -0.35693E-03   -0.40999E-03   760   0.109E-01    0.633E-02
DAV:   3    -0.872684722197E+03    0.26425E-04   -0.74224E-05   816   0.177E-02    0.356E-02
DAV:   4    -0.872684716652E+03    0.55453E-05   -0.74677E-05   800   0.195E-02    0.811E-03
DAV:   5    -0.872684716510E+03    0.14169E-06   -0.12668E-05   800   0.746E-03    0.701E-03
DAV:   6    -0.872684716098E+03    0.41217E-06   -0.35965E-06   672   0.414E-03
 135 F= -.87268472E+03 E0= -.87268472E+03  d E =0.390845E-03
       N       E                     dE             d eps       ncg     rms          rms(c)
DAV:   1    -0.872684826651E+03   -0.11014E-03   -0.33901E-02   704   0.326E-01    0.407E-02
DAV:   2    -0.872684873714E+03   -0.47064E-04   -0.55831E-04   760   0.402E-02    0.247E-02
DAV:   3    -0.872684869062E+03    0.46520E-05   -0.11266E-05   808   0.695E-03    0.136E-02
DAV:   4    -0.872684867960E+03    0.11017E-05   -0.10364E-05   792   0.724E-03    0.278E-03
DAV:   5    -0.872684867962E+03   -0.15934E-08   -0.17411E-06   520   0.281E-03
 136 F= -.87268487E+03 E0= -.87268487E+03  d E =-.151864E-03
       N       E                     dE             d eps       ncg     rms          rms(c)
DAV:   1    -0.872684749665E+03    0.11830E-03   -0.16783E-02   704   0.236E-01    0.275E-02
DAV:   2    -0.872684774966E+03   -0.25301E-04   -0.29572E-04   768   0.297E-02    0.164E-02
DAV:   3    -0.872684772654E+03    0.23117E-05   -0.55444E-06   728   0.500E-03    0.947E-03
DAV:   4    -0.872684771954E+03    0.70074E-06   -0.58060E-06   752   0.569E-03
 137 F= -.87268477E+03 E0= -.87268477E+03  d E =0.960083E-04
       N       E                     dE             d eps       ncg     rms          rms(c)
DAV:   1    -0.872684802922E+03   -0.30268E-04   -0.71122E-03   704   0.159E-01    0.239E-02
DAV:   2    -0.872684814718E+03   -0.11796E-04   -0.14668E-04   800   0.218E-02    0.106E-02
DAV:   3    -0.872684812966E+03    0.17523E-05   -0.32116E-06   664   0.434E-03    0.602E-03
DAV:   4    -0.872684812343E+03    0.62251E-06   -0.36361E-06   712   0.455E-03
 138 F= -.87268481E+03 E0= -.87268481E+03  d E =-.403894E-04
       N       E                     dE             d eps       ncg     rms          rms(c)
DAV:   1    -0.872684830837E+03   -0.17871E-04   -0.11320E-03   704   0.658E-02    0.163E-02
DAV:   2    -0.872684832660E+03   -0.18229E-05   -0.33379E-05   832   0.110E-02    0.552E-03
DAV:   3    -0.872684831883E+03    0.77674E-06   -0.12754E-06   504   0.312E-03
 139 F= -.87268483E+03 E0= -.87268483E+03  d E =-.195396E-04
       N       E                     dE             d eps       ncg     rms          rms(c)
DAV:   1    -0.872684861437E+03   -0.28778E-04   -0.52913E-03   704   0.136E-01    0.247E-02
DAV:   2    -0.872684869683E+03   -0.82460E-05   -0.11481E-04   808   0.197E-02    0.107E-02
DAV:   3    -0.872684867747E+03    0.19365E-05   -0.32805E-06   656   0.494E-03    0.598E-03
DAV:   4    -0.872684867038E+03    0.70829E-06   -0.38665E-06   736   0.520E-03
 140 F= -.87268487E+03 E0= -.87268487E+03  d E =-.351555E-04
       N       E                     dE             d eps       ncg     rms          rms(c)
DAV:   1    -0.872684888300E+03   -0.20553E-04   -0.12217E-03   704   0.690E-02    0.172E-02
DAV:   2    -0.872684890087E+03   -0.17871E-05   -0.36458E-05   832   0.118E-02    0.592E-03
DAV:   3    -0.872684889167E+03    0.92018E-06   -0.16514E-06   528   0.367E-03
 141 F= -.87268489E+03 E0= -.87268489E+03  d E =-.221283E-04
       N       E                     dE             d eps       ncg     rms          rms(c)
DAV:   1    -0.872684927677E+03   -0.37590E-04   -0.39932E-03   704   0.116E-01    0.166E-02
DAV:   2    -0.872684933968E+03   -0.62907E-05   -0.77194E-05   792   0.155E-02    0.870E-03
DAV:   3    -0.872684933207E+03    0.76105E-06   -0.15878E-06   584   0.296E-03
 142 F= -.87268493E+03 E0= -.87268493E+03  d E =-.440402E-04
       N       E                     dE             d eps       ncg     rms          rms(c)
DAV:   1    -0.872684948145E+03   -0.14177E-04   -0.46765E-04   704   0.416E-02    0.848E-03
DAV:   2    -0.872684948971E+03   -0.82666E-06   -0.12150E-05   800   0.639E-03    0.360E-03
DAV:   3    -0.872684948760E+03    0.21081E-06   -0.45138E-07   448   0.184E-03
 143 F= -.87268495E+03 E0= -.87268495E+03  d E =-.155536E-04
       N       E                     dE             d eps       ncg     rms          rms(c)
DAV:   1    -0.872684989056E+03   -0.40085E-04   -0.37805E-03   704   0.112E-01    0.147E-02
DAV:   2    -0.872684994819E+03   -0.57623E-05   -0.68804E-05   784   0.145E-02    0.818E-03
DAV:   3    -0.872684994230E+03    0.58835E-06   -0.12918E-06   568   0.272E-03
 144 F= -.87268499E+03 E0= -.87268499E+03  d E =-.454699E-04
       N       E                     dE             d eps       ncg     rms          rms(c)
DAV:   1    -0.872685007053E+03   -0.12235E-04   -0.27570E-04   704   0.314E-02    0.575E-03
DAV:   2    -0.872685007481E+03   -0.42781E-06   -0.60423E-06   736   0.453E-03
 145 F= -.87268501E+03 E0= -.87268501E+03  d E =-.132508E-04
       N       E                     dE             d eps       ncg     rms          rms(c)
DAV:   1    -0.872685021711E+03   -0.14658E-04   -0.34596E-04   704   0.339E-02    0.504E-03
DAV:   2    -0.872685022185E+03   -0.47398E-06   -0.61180E-06   744   0.430E-03
 146 F= -.87268502E+03 E0= -.87268502E+03  d E =-.147038E-04
       N       E                     dE             d eps       ncg     rms          rms(c)
DAV:   1    -0.872685072096E+03   -0.50385E-04   -0.52788E-03   704   0.132E-01    0.165E-02
DAV:   2    -0.872685079713E+03   -0.76168E-05   -0.89942E-05   776   0.163E-02    0.101E-02
DAV:   3    -0.872685079000E+03    0.71264E-06   -0.16823E-06   600   0.284E-03
 147 F= -.87268508E+03 E0= -.87268508E+03  d E =-.568150E-04
       N       E                     dE             d eps       ncg     rms          rms(c)
DAV:   1    -0.872685116265E+03   -0.36552E-04   -0.26533E-03   704   0.930E-02    0.112E-02
DAV:   2    -0.872685119977E+03   -0.37118E-05   -0.43002E-05   784   0.112E-02    0.651E-03
DAV:   3    -0.872685119761E+03    0.21594E-06   -0.84029E-07   544   0.193E-03
 148 F= -.87268512E+03 E0= -.87268512E+03  d E =-.407607E-04
       N       E                     dE             d eps       ncg     rms          rms(c)
DAV:   1    -0.872685206039E+03   -0.86062E-04   -0.22490E-02   704   0.272E-01    0.314E-02
DAV:   2    -0.872685239819E+03   -0.33780E-04   -0.38649E-04   768   0.335E-02    0.191E-02
DAV:   3    -0.872685237439E+03    0.23800E-05   -0.69855E-06   752   0.540E-03    0.108E-02
DAV:   4    -0.872685236909E+03    0.52978E-06   -0.67335E-06   768   0.593E-03
 149 F= -.87268524E+03 E0= -.87268524E+03  d E =-.117148E-03
       N       E                     dE             d eps       ncg     rms          rms(c)
DAV:   1    -0.872685346788E+03   -0.10935E-03   -0.11202E-01   704   0.597E-01    0.719E-02
DAV:   2    -0.872685512857E+03   -0.16607E-03   -0.19147E-03   768   0.742E-02    0.439E-02
DAV:   3    -0.872685500373E+03    0.12484E-04   -0.35595E-05   816   0.124E-02    0.247E-02
DAV:   4    -0.872685497956E+03    0.24169E-05   -0.36289E-05   808   0.136E-02    0.580E-03
DAV:   5    -0.872685497828E+03    0.12776E-06   -0.59766E-06   736   0.522E-03
 150 F= -.87268550E+03 E0= -.87268550E+03  d E =-.260919E-03
       N       E                     dE             d eps       ncg     rms          rms(c)
DAV:   1    -0.872685606479E+03   -0.10852E-03   -0.73121E-02   704   0.484E-01    0.582E-02
DAV:   2    -0.872685717720E+03   -0.11124E-03   -0.12681E-03   768   0.603E-02    0.352E-02
DAV:   3    -0.872685710103E+03    0.76170E-05   -0.22447E-05   816   0.987E-03    0.199E-02
DAV:   4    -0.872685708739E+03    0.13636E-05   -0.23566E-05   808   0.110E-02    0.474E-03
DAV:   5    -0.872685708651E+03    0.88592E-07   -0.38786E-06   672   0.420E-03
 151 F= -.87268571E+03 E0= -.87268571E+03  d E =-.210823E-03
       N       E                     dE             d eps       ncg     rms          rms(c)
DAV:   1    -0.872685794224E+03   -0.85485E-04   -0.25938E-02   704   0.287E-01    0.357E-02
DAV:   2    -0.872685834035E+03   -0.39811E-04   -0.45612E-04   776   0.362E-02    0.211E-02
DAV:   3    -0.872685831314E+03    0.27211E-05   -0.83066E-06   760   0.619E-03    0.120E-02
DAV:   4    -0.872685830886E+03    0.42818E-06   -0.90165E-06   752   0.683E-03
 152 F= -.87268583E+03 E0= -.87268583E+03  d E =-.122235E-03
       N       E                     dE             d eps       ncg     rms          rms(c)
DAV:   1    -0.872685936749E+03   -0.10544E-03   -0.45262E-02   704   0.378E-01    0.469E-02
DAV:   2    -0.872686003637E+03   -0.66888E-04   -0.77711E-04   776   0.474E-02    0.281E-02
DAV:   3    -0.872685998651E+03    0.49865E-05   -0.14965E-05   816   0.813E-03    0.158E-02
DAV:   4    -0.872685997685E+03    0.96573E-06   -0.14855E-05   800   0.898E-03    0.371E-03
DAV:   5    -0.872685997653E+03    0.32553E-07   -0.25016E-06   576   0.344E-03
 153 F= -.87268600E+03 E0= -.87268600E+03  d E =-.166767E-03
       N       E                     dE             d eps       ncg     rms          rms(c)
DAV:   1    -0.872685983709E+03    0.13976E-04   -0.85564E-04   720   0.583E-02    0.103E-02
DAV:   2    -0.872685985318E+03   -0.16085E-05   -0.22697E-05   816   0.899E-03    0.509E-03
DAV:   3    -0.872685984912E+03    0.40591E-06   -0.65109E-07   504   0.221E-03
 154 F= -.87268598E+03 E0= -.87268598E+03  d E =0.127409E-04
       N       E                     dE             d eps       ncg     rms          rms(c)
DAV:   1    -0.872685971592E+03    0.13726E-04   -0.59830E-04   720   0.464E-02    0.856E-03
DAV:   2    -0.872685972674E+03   -0.10823E-05   -0.14328E-05   808   0.686E-03    0.386E-03
DAV:   3    -0.872685972448E+03    0.22653E-06   -0.43335E-07   504   0.180E-03
 155 F= -.87268597E+03 E0= -.87268597E+03  d E =0.124642E-04
       N       E                     dE             d eps       ncg     rms          rms(c)
DAV:   1    -0.872685958834E+03    0.13840E-04   -0.30142E-04   720   0.315E-02    0.420E-03
DAV:   2    -0.872685959264E+03   -0.42952E-06   -0.51202E-06   720   0.398E-03
 156 F= -.87268596E+03 E0= -.87268596E+03  d E =0.131838E-04
       N       E                     dE             d eps       ncg     rms          rms(c)
DAV:   1    -0.872685999756E+03   -0.40922E-04   -0.65218E-03   704   0.149E-01    0.235E-02
DAV:   2    -0.872686010355E+03   -0.10599E-04   -0.13465E-04   800   0.209E-02    0.103E-02
DAV:   3    -0.872686008764E+03    0.15913E-05   -0.33243E-06   680   0.470E-03    0.598E-03
DAV:   4    -0.872686008058E+03    0.70608E-06   -0.31265E-06   680   0.493E-03
 157 F= -.87268601E+03 E0= -.87268601E+03  d E =-.487938E-04
       N       E                     dE             d eps       ncg     rms          rms(c)
DAV:   1    -0.872686036528E+03   -0.27764E-04   -0.16037E-03   704   0.764E-02    0.170E-02
DAV:   2    -0.872686038681E+03   -0.21524E-05   -0.39855E-05   816   0.121E-02    0.629E-03
DAV:   3    -0.872686037812E+03    0.86876E-06   -0.16656E-06   536   0.369E-03
 158 F= -.87268604E+03 E0= -.87268604E+03  d E =-.297542E-04
       N       E                     dE             d eps       ncg     rms          rms(c)
DAV:   1    -0.872686073641E+03   -0.34961E-04   -0.35418E-03   704   0.109E-01    0.158E-02
DAV:   2    -0.872686079115E+03   -0.54734E-05   -0.68531E-05   800   0.148E-02    0.855E-03
DAV:   3    -0.872686078347E+03    0.76744E-06   -0.15571E-06   584   0.309E-03
 159 F= -.87268608E+03 E0= -.87268608E+03  d E =-.405356E-04
       N       E                     dE             d eps       ncg     rms          rms(c)
DAV:   1    -0.872686093005E+03   -0.13890E-04   -0.48615E-04   720   0.425E-02    0.904E-03
DAV:   2    -0.872686093858E+03   -0.85275E-06   -0.13159E-05   808   0.665E-03    0.383E-03
DAV:   3    -0.872686093598E+03    0.25947E-06   -0.46509E-07   480   0.197E-03
 160 F= -.87268609E+03 E0= -.87268609E+03  d E =-.152509E-04
       N       E                     dE             d eps       ncg     rms          rms(c)
DAV:   1    -0.872686130431E+03   -0.36573E-04   -0.37301E-03   704   0.112E-01    0.168E-02
DAV:   2    -0.872686136208E+03   -0.57774E-05   -0.72929E-05   800   0.152E-02    0.839E-03
DAV:   3    -0.872686135424E+03    0.78382E-06   -0.16598E-06   592   0.325E-03
 161 F= -.87268614E+03 E0= -.87268614E+03  d E =-.418259E-04
       N       E                     dE             d eps       ncg     rms          rms(c)
DAV:   1    -0.872686149195E+03   -0.12987E-04   -0.48900E-04   720   0.425E-02    0.962E-03
DAV:   2    -0.872686149914E+03   -0.71958E-06   -0.13087E-05   800   0.673E-03    0.372E-03
DAV:   3    -0.872686149628E+03    0.28636E-06   -0.50929E-07   488   0.211E-03
 162 F= -.87268615E+03 E0= -.87268615E+03  d E =-.142037E-04
       N       E                     dE             d eps       ncg     rms          rms(c)
DAV:   1    -0.872686189073E+03   -0.39159E-04   -0.33623E-03   704   0.105E-01    0.127E-02
DAV:   2    -0.872686194205E+03   -0.51322E-05   -0.59297E-05   784   0.132E-02    0.765E-03
DAV:   3    -0.872686193797E+03    0.40778E-06   -0.97775E-07   552   0.218E-03
 163 F= -.87268619E+03 E0= -.87268619E+03  d E =-.441693E-04
       N       E                     dE             d eps       ncg     rms          rms(c)
DAV:   1    -0.872686208549E+03   -0.14344E-04   -0.43834E-04   720   0.376E-02    0.536E-03
DAV:   2    -0.872686209121E+03   -0.57166E-06   -0.70939E-06   776   0.464E-03
 164 F= -.87268621E+03 E0= -.87268621E+03  d E =-.153235E-04
       N       E                     dE             d eps       ncg     rms          rms(c)
DAV:   1    -0.872686296976E+03   -0.88427E-04   -0.25991E-02   704   0.292E-01    0.354E-02
DAV:   2    -0.872686336359E+03   -0.39383E-04   -0.45707E-04   776   0.364E-02    0.219E-02
DAV:   3    -0.872686333234E+03    0.31248E-05   -0.84610E-06   760   0.617E-03    0.122E-02
DAV:   4    -0.872686332682E+03    0.55219E-06   -0.90600E-06   776   0.668E-03
 165 F= -.87268633E+03 E0= -.87268633E+03  d E =-.123561E-03
       N       E                     dE             d eps       ncg     rms          rms(c)
DAV:   1    -0.872686439906E+03   -0.10667E-03   -0.98677E-02   704   0.558E-01    0.679E-02
DAV:   2    -0.872686585313E+03   -0.14541E-03   -0.16852E-03   768   0.696E-02    0.415E-02
DAV:   3    -0.872686574474E+03    0.10839E-04   -0.31836E-05   816   0.118E-02    0.233E-02
DAV:   4    -0.872686572609E+03    0.18652E-05   -0.33535E-05   808   0.131E-02    0.579E-03
DAV:   5    -0.872686572415E+03    0.19353E-06   -0.53925E-06   728   0.502E-03
 166 F= -.87268657E+03 E0= -.87268657E+03  d E =-.239733E-03
       N       E                     dE             d eps       ncg     rms          rms(c)
DAV:   1    -0.872686233783E+03    0.33883E-03   -0.87561E-02   704   0.530E-01    0.628E-02
DAV:   2    -0.872686361449E+03   -0.12767E-03   -0.14926E-03   760   0.657E-02    0.394E-02
DAV:   3    -0.872686350327E+03    0.11122E-04   -0.28361E-05   816   0.110E-02    0.220E-02
DAV:   4    -0.872686347959E+03    0.23672E-05   -0.29257E-05   792   0.118E-02    0.508E-03
DAV:   5    -0.872686347859E+03    0.10007E-06   -0.46678E-06   704   0.462E-03
 167 F= -.87268635E+03 E0= -.87268635E+03  d E =0.224556E-03
       N       E                     dE             d eps       ncg     rms          rms(c)
DAV:   1    -0.872686426105E+03   -0.78146E-04   -0.17843E-02   704   0.239E-01    0.286E-02
DAV:   2    -0.872686451110E+03   -0.25005E-04   -0.29775E-04   768   0.295E-02    0.177E-02
DAV:   3    -0.872686448476E+03    0.26347E-05   -0.59455E-06   728   0.502E-03    0.986E-03
DAV:   4    -0.872686447797E+03    0.67863E-06   -0.56868E-06   736   0.528E-03
 168 F= -.87268645E+03 E0= -.87268645E+03  d E =-.999377E-04
       N       E                     dE             d eps       ncg     rms          rms(c)
DAV:   1    -0.872686472253E+03   -0.23778E-04   -0.95530E-04   704   0.565E-02    0.110E-02
DAV:   2    -0.872686473854E+03   -0.16011E-05   -0.22639E-05   800   0.864E-03    0.521E-03
DAV:   3    -0.872686473576E+03    0.27846E-06   -0.65398E-07   512   0.213E-03
 169 F= -.87268647E+03 E0= -.87268647E+03  d E =-.257789E-04
       N       E                     dE             d eps       ncg     rms          rms(c)
DAV:   1    -0.872686496867E+03   -0.23013E-04   -0.19285E-03   704   0.849E-02    0.146E-02
DAV:   2    -0.872686500342E+03   -0.34746E-05   -0.46738E-05   808   0.126E-02    0.678E-03
DAV:   3    -0.872686499668E+03    0.67418E-06   -0.12318E-06   520   0.312E-03
 170 F= -.87268650E+03 E0= -.87268650E+03  d E =-.260918E-04
       N       E                     dE             d eps       ncg     rms          rms(c)
DAV:   1    -0.872686511047E+03   -0.10705E-04   -0.48333E-04   704   0.416E-02    0.930E-03
DAV:   2    -0.872686511807E+03   -0.76007E-06   -0.13322E-05   808   0.682E-03    0.394E-03
DAV:   3    -0.872686511486E+03    0.32158E-06   -0.52005E-07   488   0.223E-03
 171 F= -.87268651E+03 E0= -.87268651E+03  d E =-.118177E-04
[...]
DAV:   2    -0.872690777004E+03   -0.27541E-05   -0.32540E-05   792   0.963E-03    0.600E-03
DAV:   3    -0.872690776861E+03    0.14251E-06   -0.60666E-07   504   0.178E-03
 347 F= -.87269078E+03 E0= -.87269078E+03  d E =0.287331E-04
       N       E                     dE             d eps       ncg     rms          rms(c)
DAV:   1    -0.872690773867E+03    0.31363E-05   -0.12023E-03   704   0.677E-02    0.157E-02
DAV:   2    -0.872690776147E+03   -0.22794E-05   -0.38122E-05   832   0.118E-02    0.636E-03
DAV:   3    -0.872690775240E+03    0.90719E-06   -0.14083E-06   512   0.346E-03
 348 F= -.87269078E+03 E0= -.87269078E+03  d E =0.162162E-05
       N       E                     dE             d eps       ncg     rms          rms(c)
DAV:   1    -0.872690768000E+03    0.81470E-05   -0.15536E-03   704   0.755E-02    0.155E-02
DAV:   2    -0.872690770952E+03   -0.29519E-05   -0.41198E-05   816   0.116E-02    0.568E-03
DAV:   3    -0.872690770226E+03    0.72536E-06   -0.96283E-07   504   0.279E-03
 349 F= -.87269077E+03 E0= -.87269077E+03  d E =0.501327E-05
       N       E                     dE             d eps       ncg     rms          rms(c)
DAV:   1    -0.872690783391E+03   -0.12439E-04   -0.53697E-03   704   0.134E-01    0.241E-02
DAV:   2    -0.872690791656E+03   -0.82656E-05   -0.11381E-04   816   0.194E-02    0.102E-02
DAV:   3    -0.872690789722E+03    0.19341E-05   -0.30502E-06   640   0.474E-03    0.563E-03
DAV:   4    -0.872690789001E+03    0.72102E-06   -0.34620E-06   712   0.511E-03
 350 F= -.87269079E+03 E0= -.87269079E+03  d E =-.187748E-04
       N       E                     dE             d eps       ncg     rms          rms(c)
DAV:   1    -0.872690809169E+03   -0.19447E-04   -0.11964E-03   704   0.676E-02    0.168E-02
DAV:   2    -0.872690811018E+03   -0.18488E-05   -0.35418E-05   816   0.115E-02    0.597E-03
DAV:   3    -0.872690810160E+03    0.85751E-06   -0.14722E-06   536   0.349E-03
 351 F= -.87269081E+03 E0= -.87269081E+03  d E =-.211589E-04
       N       E                     dE             d eps       ncg     rms          rms(c)
DAV:   1    -0.872690834325E+03   -0.23307E-04   -0.24201E-03   704   0.888E-02    0.118E-02
DAV:   2    -0.872690838130E+03   -0.38048E-05   -0.45926E-05   792   0.118E-02    0.670E-03
DAV:   3    -0.872690837728E+03    0.40221E-06   -0.84981E-07   544   0.221E-03
 352 F= -.87269084E+03 E0= -.87269084E+03  d E =-.275676E-04
       N       E                     dE             d eps       ncg     rms          rms(c)
DAV:   1    -0.872690846747E+03   -0.86172E-05   -0.25398E-04   704   0.301E-02    0.576E-03
DAV:   2    -0.872690847142E+03   -0.39516E-06   -0.58619E-06   728   0.445E-03
 353 F= -.87269085E+03 E0= -.87269085E+03  d E =-.941459E-05
       N       E                     dE             d eps       ncg     rms          rms(c)
DAV:   1    -0.872690871603E+03   -0.24856E-04   -0.24108E-03   704   0.879E-02    0.123E-02
DAV:   2    -0.872690875082E+03   -0.34790E-05   -0.42653E-05   784   0.112E-02    0.686E-03
DAV:   3    -0.872690874660E+03    0.42275E-06   -0.81436E-07   544   0.222E-03
 354 F= -.87269087E+03 E0= -.87269087E+03  d E =-.275174E-04
       N       E                     dE             d eps       ncg     rms          rms(c)
DAV:   1    -0.872690883395E+03   -0.83127E-05   -0.20601E-04   704   0.268E-02    0.496E-03
DAV:   2    -0.872690883703E+03   -0.30812E-06   -0.43672E-06   672   0.383E-03
 355 F= -.87269088E+03 E0= -.87269088E+03  d E =-.904357E-05
       N       E                     dE             d eps       ncg     rms          rms(c)
DAV:   1    -0.872690910278E+03   -0.26882E-04   -0.22197E-03   704   0.834E-02    0.112E-02
DAV:   2    -0.872690913478E+03   -0.32009E-05   -0.38467E-05   792   0.105E-02    0.671E-03
DAV:   3    -0.872690913148E+03    0.33021E-06   -0.70324E-07   536   0.197E-03
 356 F= -.87269091E+03 E0= -.87269091E+03  d E =-.294450E-04
       N       E                     dE             d eps       ncg     rms          rms(c)
DAV:   1    -0.872690912835E+03    0.64357E-06   -0.13827E-06   512   0.247E-03    0.737E-04
DAV:   2    -0.872690912840E+03   -0.49768E-08   -0.20973E-07   400   0.959E-04
 357 F= -.87269091E+03 E0= -.87269091E+03  d E =0.308377E-06
       N       E                     dE             d eps       ncg     rms          rms(c)
DAV:   1    -0.872690893974E+03    0.18861E-04   -0.98722E-04   704   0.540E-02    0.847E-03
DAV:   2    -0.872690895113E+03   -0.11392E-05   -0.15788E-05   808   0.699E-03    0.435E-03
DAV:   3    -0.872690894857E+03    0.25579E-06   -0.39800E-07   512   0.168E-03
 358 F= -.87269089E+03 E0= -.87269089E+03  d E =0.179829E-04
       N       E                     dE             d eps       ncg     rms          rms(c)
DAV:   1    -0.872690934890E+03   -0.39777E-04   -0.65137E-03   704   0.139E-01    0.183E-02
DAV:   2    -0.872690943981E+03   -0.90912E-05   -0.10882E-04   784   0.176E-02    0.109E-02
DAV:   3    -0.872690942861E+03    0.11203E-05   -0.21008E-06   616   0.334E-03    0.603E-03
DAV:   4    -0.872690942596E+03    0.26487E-06   -0.26399E-06   632   0.369E-03
 359 F= -.87269094E+03 E0= -.87269094E+03  d E =-.477388E-04
       N       E                     dE             d eps       ncg     rms          rms(c)
DAV:   1    -0.872690949918E+03   -0.70574E-05   -0.20947E-04   704   0.278E-02    0.635E-03
DAV:   2    -0.872690950273E+03   -0.35504E-06   -0.63618E-06   752   0.476E-03
 360 F= -.87269095E+03 E0= -.87269095E+03  d E =-.767735E-05
       N       E                     dE             d eps       ncg     rms          rms(c)
DAV:   1    -0.872690966999E+03   -0.17081E-04   -0.77777E-04   704   0.488E-02    0.684E-03
DAV:   2    -0.872690968054E+03   -0.10548E-05   -0.13134E-05   784   0.608E-03    0.413E-03
DAV:   3    -0.872690967932E+03    0.12200E-06   -0.26966E-07   472   0.124E-03
 361 F= -.87269097E+03 E0= -.87269097E+03  d E =-.176586E-04
       N       E                     dE             d eps       ncg     rms          rms(c)
DAV:   1    -0.872690967041E+03    0.10126E-05   -0.26702E-06   584   0.306E-03    0.606E-04
DAV:   2    -0.872690967048E+03   -0.70359E-08   -0.14399E-07   376   0.794E-04
 362 F= -.87269097E+03 E0= -.87269097E+03  d E =0.883600E-06
       N       E                     dE             d eps       ncg     rms          rms(c)
DAV:   1    -0.872690939722E+03    0.27319E-04   -0.15077E-03   704   0.649E-02    0.104E-02
DAV:   2    -0.872690941656E+03   -0.19334E-05   -0.25423E-05   792   0.857E-03    0.576E-03
DAV:   3    -0.872690941322E+03    0.33384E-06   -0.61775E-07   536   0.205E-03
 363 F= -.87269094E+03 E0= -.87269094E+03  d E =0.257263E-04
       N       E                     dE             d eps       ncg     rms          rms(c)
DAV:   1    -0.872690987017E+03   -0.45361E-04   -0.68085E-03   704   0.138E-01    0.185E-02
DAV:   2    -0.872690996383E+03   -0.93662E-05   -0.11213E-04   792   0.174E-02    0.115E-02
DAV:   3    -0.872690995306E+03    0.10763E-05   -0.22270E-06   624   0.342E-03    0.630E-03
DAV:   4    -0.872690995111E+03    0.19499E-06   -0.27258E-06   616   0.356E-03
 364 F= -.87269100E+03 E0= -.87269100E+03  d E =-.537896E-04
       N       E                     dE             d eps       ncg     rms          rms(c)
DAV:   1    -0.872691004619E+03   -0.93123E-05   -0.20923E-04   744   0.269E-02    0.580E-03
DAV:   2    -0.872691004949E+03   -0.32994E-06   -0.53700E-06   736   0.426E-03
 365 F= -.87269100E+03 E0= -.87269100E+03  d E =-.983723E-05
       N       E                     dE             d eps       ncg     rms          rms(c)
DAV:   1    -0.872691015015E+03   -0.10396E-04   -0.36624E-04   704   0.363E-02    0.629E-03
DAV:   2    -0.872691015588E+03   -0.57285E-06   -0.75961E-06   784   0.495E-03
 366 F= -.87269102E+03 E0= -.87269102E+03  d E =-.106390E-04
       N       E                     dE             d eps       ncg     rms          rms(c)
DAV:   1    -0.872691022967E+03   -0.79524E-05   -0.14909E-04   704   0.217E-02    0.457E-03
DAV:   2    -0.872691023160E+03   -0.19320E-06   -0.27659E-06   616   0.298E-03
 367 F= -.87269102E+03 E0= -.87269102E+03  d E =-.757275E-05
       N       E                     dE             d eps       ncg     rms          rms(c)
DAV:   1    -0.872691046548E+03   -0.23580E-04   -0.13739E-03   704   0.651E-02    0.892E-03
DAV:   2    -0.872691048408E+03   -0.18609E-05   -0.22603E-05   784   0.790E-03    0.552E-03
DAV:   3    -0.872691048211E+03    0.19750E-06   -0.43297E-07   504   0.147E-03
 368 F= -.87269105E+03 E0= -.87269105E+03  d E =-.250506E-04
       N       E                     dE             d eps       ncg     rms          rms(c)
DAV:   1    -0.872691034184E+03    0.14224E-04   -0.39937E-04   704   0.370E-02    0.782E-03
DAV:   2    -0.872691034866E+03   -0.68164E-06   -0.10000E-05   800   0.573E-03    0.323E-03
DAV:   3    -0.872691034671E+03    0.19451E-06   -0.28951E-07   472   0.150E-03
 369 F= -.87269103E+03 E0= -.87269103E+03  d E =0.135398E-04
       N       E                     dE             d eps       ncg     rms          rms(c)
DAV:   1    -0.872691015680E+03    0.19185E-04   -0.10616E-03   704   0.557E-02    0.859E-03
DAV:   2    -0.872691017048E+03   -0.13677E-05   -0.17572E-05   808   0.718E-03    0.452E-03
DAV:   3    -0.872691016841E+03    0.20705E-06   -0.39911E-07   488   0.154E-03
 370 F= -.87269102E+03 E0= -.87269102E+03  d E =0.178302E-04
       N       E                     dE             d eps       ncg     rms          rms(c)
DAV:   1    -0.872691041610E+03   -0.24562E-04   -0.38602E-03   704   0.110E-01    0.185E-02
DAV:   2    -0.872691047198E+03   -0.55885E-05   -0.72942E-05   808   0.150E-02    0.847E-03
DAV:   3    -0.872691046214E+03    0.98474E-06   -0.18168E-06   600   0.338E-03
 371 F= -.87269105E+03 E0= -.87269105E+03  d E =-.293727E-04
       N       E                     dE             d eps       ncg     rms          rms(c)
DAV:   1    -0.872691059826E+03   -0.12628E-04   -0.54603E-04   704   0.456E-02    0.112E-02
DAV:   2    -0.872691060703E+03   -0.87717E-06   -0.16538E-05   816   0.757E-03    0.413E-03
DAV:   3    -0.872691060326E+03    0.37737E-06   -0.64139E-07   480   0.223E-03
 372 F= -.87269106E+03 E0= -.87269106E+03  d E =-.141124E-04
       N       E                     dE             d eps       ncg     rms          rms(c)
DAV:   1    -0.872691088399E+03   -0.27696E-04   -0.24549E-03   704   0.873E-02    0.116E-02
DAV:   2    -0.872691091972E+03   -0.35728E-05   -0.42534E-05   800   0.111E-02    0.680E-03
DAV:   3    -0.872691091613E+03    0.35861E-06   -0.77232E-07   536   0.203E-03
 373 F= -.87269109E+03 E0= -.87269109E+03  d E =-.312872E-04
       N       E                     dE             d eps       ncg     rms          rms(c)
DAV:   1    -0.872691101269E+03   -0.92976E-05   -0.24512E-04   704   0.295E-02    0.544E-03
DAV:   2    -0.872691101649E+03   -0.37926E-06   -0.53318E-06   728   0.410E-03
 374 F= -.87269110E+03 E0= -.87269110E+03  d E =-.100355E-04
       N       E                     dE             d eps       ncg     rms          rms(c)
DAV:   1    -0.872691125239E+03   -0.23970E-04   -0.16093E-03   704   0.701E-02    0.999E-03
DAV:   2    -0.872691127474E+03   -0.22348E-05   -0.27485E-05   792   0.885E-03    0.592E-03
DAV:   3    -0.872691127216E+03    0.25807E-06   -0.56383E-07   528   0.178E-03
 375 F= -.87269113E+03 E0= -.87269113E+03  d E =-.255672E-04
       N       E                     dE             d eps       ncg     rms          rms(c)
DAV:   1    -0.872691140366E+03   -0.12893E-04   -0.40403E-04   704   0.364E-02    0.524E-03
DAV:   2    -0.872691140935E+03   -0.56885E-06   -0.70633E-06   760   0.459E-03
 376 F= -.87269114E+03 E0= -.87269114E+03  d E =-.137194E-04
       N       E                     dE             d eps       ncg     rms          rms(c)
DAV:   1    -0.872691213329E+03   -0.72962E-04   -0.26702E-02   704   0.290E-01    0.370E-02
DAV:   2    -0.872691252238E+03   -0.38909E-04   -0.45541E-04   784   0.358E-02    0.225E-02
DAV:   3    -0.872691248944E+03    0.32939E-05   -0.87109E-06   768   0.612E-03    0.123E-02
DAV:   4    -0.872691248414E+03    0.53019E-06   -0.84438E-06   776   0.624E-03
 377 F= -.87269125E+03 E0= -.87269125E+03  d E =-.107479E-03
       N       E                     dE             d eps       ncg     rms          rms(c)
DAV:   1    -0.872691318209E+03   -0.69265E-04   -0.26988E-02   704   0.288E-01    0.383E-02
DAV:   2    -0.872691358080E+03   -0.39871E-04   -0.46621E-04   784   0.363E-02    0.223E-02
DAV:   3    -0.872691355009E+03    0.30713E-05   -0.92080E-06   776   0.652E-03    0.124E-02
DAV:   4    -0.872691354443E+03    0.56609E-06   -0.87513E-06   768   0.682E-03
 378 F= -.87269135E+03 E0= -.87269135E+03  d E =-.106029E-03
       N       E                     dE             d eps       ncg     rms          rms(c)
DAV:   1    -0.872691430749E+03   -0.75740E-04   -0.60925E-02   704   0.431E-01    0.553E-02
DAV:   2    -0.872691519026E+03   -0.88277E-04   -0.10276E-03   776   0.534E-02    0.333E-02
DAV:   3    -0.872691512312E+03    0.67137E-05   -0.19779E-05   816   0.918E-03    0.184E-02
DAV:   4    -0.872691511265E+03    0.10474E-05   -0.19015E-05   808   0.966E-03    0.412E-03
DAV:   5    -0.872691511193E+03    0.71908E-07   -0.30542E-06   600   0.371E-03
 379 F= -.87269151E+03 E0= -.87269151E+03  d E =-.156750E-03
       N       E                     dE             d eps       ncg     rms          rms(c)
DAV:   1    -0.872691253566E+03    0.25770E-03   -0.70757E-02   704   0.469E-01    0.581E-02
DAV:   2    -0.872691355203E+03   -0.10164E-03   -0.11877E-03   768   0.575E-02    0.359E-02
DAV:   3    -0.872691346331E+03    0.88723E-05   -0.22626E-05   816   0.963E-03    0.198E-02
DAV:   4    -0.872691344589E+03    0.17423E-05   -0.21320E-05   776   0.982E-03    0.403E-03
DAV:   5    -0.872691344555E+03    0.33462E-07   -0.33201E-06   624   0.379E-03
 380 F= -.87269134E+03 E0= -.87269134E+03  d E =0.166638E-03
       N       E                     dE             d eps       ncg     rms          rms(c)
DAV:   1    -0.872691362363E+03   -0.17775E-04   -0.82531E-04   704   0.508E-02    0.623E-03
DAV:   2    -0.872691363338E+03   -0.97441E-06   -0.13049E-05   760   0.611E-03    0.420E-03
DAV:   3    -0.872691363147E+03    0.19091E-06   -0.30298E-07   416   0.120E-03
 381 F= -.87269136E+03 E0= -.87269136E+03  d E =-.185918E-04
       N       E                     dE             d eps       ncg     rms          rms(c)
DAV:   1    -0.872691368958E+03   -0.56199E-05   -0.26623E-04   704   0.319E-02    0.630E-03
DAV:   2    -0.872691369471E+03   -0.51299E-06   -0.66979E-06   784   0.475E-03
 382 F= -.87269137E+03 E0= -.87269137E+03  d E =-.632385E-05
       N       E                     dE             d eps       ncg     rms          rms(c)
DAV:   1    -0.872691395781E+03   -0.26823E-04   -0.17634E-03   704   0.713E-02    0.119E-02
DAV:   2    -0.872691397934E+03   -0.21537E-05   -0.27962E-05   792   0.884E-03    0.667E-03
DAV:   3    -0.872691397621E+03    0.31348E-06   -0.62679E-07   536   0.176E-03
 383 F= -.87269140E+03 E0= -.87269140E+03  d E =-.281502E-04
       N       E                     dE             d eps       ncg     rms          rms(c)
DAV:   1    -0.872691434161E+03   -0.36226E-04   -0.34550E-03   704   0.982E-02    0.140E-02
DAV:   2    -0.872691438489E+03   -0.43287E-05   -0.52161E-05   784   0.117E-02    0.853E-03
DAV:   3    -0.872691438082E+03    0.40743E-06   -0.10993E-06   584   0.218E-03
 384 F= -.87269144E+03 E0= -.87269144E+03  d E =-.404610E-04
       N       E                     dE             d eps       ncg     rms          rms(c)
DAV:   1    -0.872691462287E+03   -0.23797E-04   -0.14486E-03   704   0.639E-02    0.900E-03
DAV:   2    -0.872691464089E+03   -0.18024E-05   -0.21508E-05   784   0.751E-03    0.541E-03
DAV:   3    -0.872691463949E+03    0.14015E-06   -0.44853E-07   512   0.138E-03
 385 F= -.87269146E+03 E0= -.87269146E+03  d E =-.258669E-04
       N       E                     dE             d eps       ncg     rms          rms(c)
DAV:   1    -0.872691511208E+03   -0.47119E-04   -0.67274E-03   704   0.138E-01    0.190E-02
DAV:   2    -0.872691519939E+03   -0.87311E-05   -0.10378E-04   776   0.165E-02    0.117E-02
DAV:   3    -0.872691519125E+03    0.81431E-06   -0.20749E-06   608   0.291E-03
 386 F= -.87269152E+03 E0= -.87269152E+03  d E =-.551758E-04
       N       E                     dE             d eps       ncg     rms          rms(c)
DAV:   1    -0.872691603411E+03   -0.83472E-04   -0.37811E-02   704   0.326E-01    0.447E-02
DAV:   2    -0.872691652163E+03   -0.48753E-04   -0.57951E-04   776   0.390E-02    0.275E-02
DAV:   3    -0.872691647650E+03    0.45136E-05   -0.12211E-05   776   0.683E-03    0.141E-02
DAV:   4    -0.872691647164E+03    0.48573E-06   -0.95969E-06   768   0.620E-03
 387 F= -.87269165E+03 E0= -.87269165E+03  d E =-.128039E-03
       N       E                     dE             d eps       ncg     rms          rms(c)
DAV:   1    -0.872691681303E+03   -0.33653E-04   -0.47118E-03   704   0.123E-01    0.206E-02
DAV:   2    -0.872691689239E+03   -0.79355E-05   -0.98339E-05   800   0.172E-02    0.105E-02
DAV:   3    -0.872691688370E+03    0.86881E-06   -0.21181E-06   608   0.367E-03
 388 F= -.87269169E+03 E0= -.87269169E+03  d E =-.412059E-04
       N       E                     dE             d eps       ncg     rms          rms(c)
DAV:   1    -0.872691780626E+03   -0.91388E-04   -0.83162E-02   704   0.481E-01    0.670E-02
DAV:   2    -0.872691886164E+03   -0.10554E-03   -0.12703E-03   760   0.578E-02    0.412E-02
DAV:   3    -0.872691875451E+03    0.10714E-04   -0.27937E-05   792   0.104E-02    0.212E-02
DAV:   4    -0.872691874161E+03    0.12900E-05   -0.21404E-05   808   0.929E-03    0.397E-03
DAV:   5    -0.872691874100E+03    0.60973E-07   -0.31576E-06   624   0.350E-03
 389 F= -.87269187E+03 E0= -.87269187E+03  d E =-.185730E-03
       N       E                     dE             d eps       ncg     rms          rms(c)
DAV:   1    -0.872691913653E+03   -0.39493E-04   -0.52721E-03   704   0.122E-01    0.171E-02
DAV:   2    -0.872691921255E+03   -0.76017E-05   -0.87037E-05   784   0.152E-02    0.104E-02
DAV:   3    -0.872691920724E+03    0.53035E-06   -0.15452E-06   608   0.283E-03
 390 F= -.87269192E+03 E0= -.87269192E+03  d E =-.466249E-04
       N       E                     dE             d eps       ncg     rms          rms(c)
DAV:   1    -0.872691588229E+03    0.33303E-03   -0.10800E-01   704   0.547E-01    0.754E-02
DAV:   2    -0.872691728024E+03   -0.13980E-03   -0.16761E-03   752   0.660E-02    0.475E-02
DAV:   3    -0.872691713089E+03    0.14935E-04   -0.35045E-05   800   0.119E-02    0.242E-02
DAV:   4    -0.872691711632E+03    0.14564E-05   -0.29865E-05   792   0.105E-02    0.504E-03
DAV:   5    -0.872691711442E+03    0.19001E-06   -0.39841E-06   648   0.397E-03
 391 F= -.87269171E+03 E0= -.87269171E+03  d E =0.209282E-03
       N       E                     dE             d eps       ncg     rms          rms(c)
DAV:   1    -0.872691716478E+03   -0.48462E-05   -0.62717E-05   672   0.133E-02    0.256E-03
DAV:   2    -0.872691716449E+03    0.29213E-07   -0.88332E-07   496   0.173E-03
 392 F= -.87269172E+03 E0= -.87269172E+03  d E =-.500699E-05
       N       E                     dE             d eps       ncg     rms          rms(c)
DAV:   1    -0.872691717401E+03   -0.92207E-06   -0.30464E-01   704   0.917E-01    0.128E-01
DAV:   2    -0.872692103749E+03   -0.38635E-03   -0.46503E-03   760   0.110E-01    0.799E-02
DAV:   3    -0.872692062372E+03    0.41377E-04   -0.98696E-05   808   0.196E-02    0.402E-02
DAV:   4    -0.872692057829E+03    0.45429E-05   -0.78695E-05   800   0.174E-02    0.776E-03
DAV:   5    -0.872692057503E+03    0.32620E-06   -0.11235E-05   800   0.647E-03    0.624E-03
DAV:   6    -0.872692057154E+03    0.34887E-06   -0.28452E-06   648   0.356E-03
 393 F= -.87269206E+03 E0= -.87269206E+03  d E =-.340705E-03
