unknown system                          
           1
    13.729572   -0.004625   -0.001411
    -6.868739   11.890915    0.001820
    -0.001511    0.001307   14.890378
   Al   C    H    O    Si
   1   1   3  72  35
Direct configuration=     1
   0.56594165  0.66515664  0.56715631
   0.57466825  0.79411746  0.41782532
   0.61934277  0.87985634  0.39116819
   0.61634670  0.74797082  0.39610437
   0.48574356  0.75008684  0.39819690
   0.01904334  0.33323389  0.83554304
   0.20931605  0.41998286  0.53761097
   0.55024609  0.09417217  0.20438459
   0.88042770  0.76136546  0.86614851
   0.45339173  0.54649136  0.79880449
   0.12510669  0.87810439  0.13275670
   0.09448714  0.54747575  0.80217305
   0.41871627  0.21046776  0.46326784
   0.76536803  0.88148748  0.13701910
   0.21733434  0.78320120  0.53487078
   0.90219023  0.09993356  0.12362546
   0.24212949  0.12124811  0.86673290
   0.87805987  0.43865509  0.45299802
   0.43567778  0.86905500  0.54708775
   0.98436061  0.31564251  0.16654480
   0.65166194  0.01499182  0.51186617
   0.00416058  0.65301674  0.50007211
   0.33634758  0.31418455  0.16567741
   0.98512815  0.66280808  0.16223105
   0.35464710  0.35593065  0.49995249
   0.68735946  0.01628028  0.17241014
   0.66809969  0.98406009  0.83481606
   0.99807725  0.34476921  0.50444789
   0.78564037  0.22059292  0.46317396
   0.33879009  0.01924797  0.16390906
   0.90771907  0.45108710  0.20534645
   0.31541664  0.33479533  0.83593258
   0.45616089  0.91129396  0.79463677
   0.07512992  0.66544467  0.66721707
   0.66321909  0.06762470  0.33889244
   0.00021342  0.74301926  0.99937666
   0.59472044  0.90906972  0.67024753
   0.93691854  0.60169489  0.33141654
   0.25845273  0.25704404  0.00097073
   0.40828408  0.33724863  0.33258531
   0.78953436  0.56739153  0.46165418
   0.73669354  0.99658268  0.00362352
   0.58131532  0.79946369  0.51748713
   0.60274226  0.69002952  0.67771007
   0.26111445  0.00051625  0.99929707
   0.07033180  0.40669322  0.66954227
   0.40348604  0.06895554  0.33263819
   0.33167507  0.40173534  0.66801885
   0.74964254  0.74362559  0.00486400
   0.55048180  0.45258649  0.19902926
   0.87981548  0.12014262  0.87320178
   0.33056302  0.92873825  0.66670597
   0.57038556  0.42733098  0.45623887
   0.66632573  0.59027702  0.33386253
   0.93694135  0.33198331  0.33460220
   0.35062642  0.99846107  0.49910978
   0.31609915  0.98204720  0.83386143
   0.90673561  0.80279527  0.13076554
   0.23669169  0.76613056  0.79020058
   0.12138697  0.23743878  0.13562162
   0.56547558  0.14016743  0.45606015
   0.23481452  0.46899856  0.79048435
   0.19987634  0.09715188  0.12575885
   0.00636829  0.26266416  0.00160277
   0.09962358  0.90307213  0.87521555
   0.80103685  0.90060005  0.87909495
   0.42587069  0.56982981  0.54808225
   0.52752255  0.76486834  0.80875262
   0.76996167  0.53221768  0.21083750
   0.13232746  0.56318628  0.54210950
   0.47120970  0.23437775  0.21225834
   0.65651667  0.64553943  0.50108881
   0.76941542  0.23195122  0.21704850
   0.66221019  0.68146650  0.84517521
   0.02058899  0.68750435  0.83319782
   0.09871579  0.19595985  0.87588685
   0.68889754  0.66781273  0.16968038
   0.56106570  0.89103829  0.77773166
   0.00034220  0.77394501  0.89380737
   0.89924514  0.33264936  0.23102127
   0.77333701  0.99907734  0.10812703
   0.10385060  0.43486766  0.56417703
   0.33400137  0.43857711  0.77206599
   0.00388400  0.77183284  0.10568929
   0.33395058  0.89589179  0.77149096
   0.23092521  0.99920311  0.10500586
   0.22913134  0.22606156  0.10651795
   0.10560789  0.43915389  0.77414654
   0.66599290  0.11216513  0.44123217
   0.00344827  0.22840643  0.10637699
   0.90065980  0.33501525  0.43814137
   0.33254007  0.89515532  0.56251110
   0.90219430  0.56555895  0.43592524
   0.10683271  0.66678097  0.77285280
   0.33323969  0.44007587  0.56345091
   0.89926122  0.56205539  0.22798765
   0.77825170  0.77394422  0.11011642
   0.66960453  0.55800511  0.43941449
   0.43878824  0.33458000  0.43826725
   0.10669694  0.66494094  0.56191767
   0.22895926  0.00127705  0.89422662
   0.66936356  0.56027165  0.22893618
   0.56161382  0.66975467  0.77996883
   0.00146349  0.22791567  0.89652905
   0.77316674  0.77204262  0.89850327
   0.66833045  0.10343871  0.23301508
   0.22840561  0.22769476  0.89512921
   0.44152021  0.33433760  0.22819033
   0.77147420  0.99972181  0.89825829
   0.56477328  0.90268010  0.56551003
   0.44076387  0.10497028  0.22852141
   0.43459065  0.10520155  0.43736825
Direct configuration=     2
   0.56594379  0.66515779  0.56715358
   0.57454348  0.79405726  0.41784763
   0.61928849  0.87983964  0.39114971
   0.61628652  0.74792773  0.39608608
   0.48570877  0.75007649  0.39822469
   0.01905050  0.33323749  0.83554231
   0.20931549  0.41998319  0.53761030
   0.55024916  0.09417370  0.20438323
   0.88042950  0.76136821  0.86614821
   0.45340002  0.54649542  0.79879748
   0.12510965  0.87810660  0.13275972
   0.09449008  0.54748022  0.80217529
   0.41872490  0.21047358  0.46326499
   0.76537044  0.88148758  0.13701739
   0.21733393  0.78320363  0.53487229
   0.90219350  0.09993411  0.12362683
   0.24213890  0.12125536  0.86673075
   0.87806160  0.43865713  0.45298980
   0.43567817  0.86907135  0.54709300
   0.98436260  0.31564488  0.16654533
   0.65166569  0.01498296  0.51186574
   0.00415914  0.65301508  0.50007002
   0.33634657  0.31418444  0.16567757
   0.98512501  0.66280112  0.16223381
   0.35464515  0.35592076  0.49995098
   0.68736383  0.01628204  0.17240826
   0.66809841  0.98405717  0.83481225
   0.99807471  0.34476990  0.50444865
   0.78565978  0.22061134  0.46317501
   0.33879110  0.01924880  0.16390766
   0.90772397  0.45108478  0.20535156
   0.31542066  0.33479649  0.83593772
   0.45616990  0.91129375  0.79463062
   0.07513414  0.66544500  0.66721441
   0.66322390  0.06762692  0.33888193
   0.00021984  0.74302592  0.99937635
   0.59472674  0.90907216  0.67025243
   0.93691731  0.60170200  0.33142493
   0.25845463  0.25704004  0.00098230
   0.40828860  0.33725697  0.33259285
   0.78954545  0.56739511  0.46165514
   0.73669841  0.99658622  0.00362172
   0.58129956  0.79945282  0.51747643
   0.60275254  0.69003691  0.67771162
   0.26111383  0.00051741  0.99929895
   0.07033930  0.40669831  0.66954166
   0.40348840  0.06895129  0.33263652
   0.33166820  0.40172741  0.66802444
   0.74964675  0.74362601  0.00486521
   0.55047896  0.45257998  0.19902648
   0.87981826  0.12014072  0.87319995
   0.33055590  0.92874183  0.66670513
   0.57038056  0.42733415  0.45624491
   0.66632897  0.59027400  0.33386406
   0.93694222  0.33197610  0.33460277
   0.35061967  0.99846548  0.49911238
   0.31610204  0.98204535  0.83386670
   0.90673708  0.80279690  0.13076616
   0.23669538  0.76612958  0.79020010
   0.12139248  0.23744069  0.13562367
   0.56547374  0.14015732  0.45606373
   0.23482885  0.46900489  0.79048626
   0.19987816  0.09714981  0.12576297
   0.00637264  0.26266312  0.00160446
   0.09962645  0.90307712  0.87521470
   0.80103959  0.90060033  0.87909401
   0.42587467  0.56982348  0.54808476
   0.52752628  0.76487893  0.80875075
   0.76996849  0.53221595  0.21083200
   0.13233284  0.56319279  0.54210931
   0.47120965  0.23437604  0.21226182
   0.65651947  0.64555273  0.50108272
   0.76941793  0.23195243  0.21704766
   0.66221210  0.68146786  0.84517122
   0.02059359  0.68751190  0.83320107
   0.09873878  0.19595826  0.87588569
   0.68890459  0.66782139  0.16967511
   0.56106652  0.89104197  0.77773194
   0.00034832  0.77394045  0.89380080
   0.89924672  0.33265351  0.23101838
   0.77333681  0.99907880  0.10812686
   0.10385423  0.43486606  0.56418060
   0.33400467  0.43858220  0.77206365
   0.00388404  0.77183262  0.10568790
   0.33395286  0.89589255  0.77149372
   0.23093349  0.99921028  0.10501349
   0.22913571  0.22606643  0.10651967
   0.10560383  0.43915000  0.77414608
   0.66598517  0.11216292  0.44123058
   0.00344823  0.22840765  0.10637259
   0.90065213  0.33501135  0.43814668
   0.33254529  0.89515197  0.56251268
   0.90219156  0.56555698  0.43592534
   0.10683042  0.66677939  0.77285456
   0.33323838  0.44007896  0.56345296
   0.89927706  0.56206550  0.22798149
   0.77824792  0.77393911  0.11011747
   0.66960435  0.55800653  0.43941043
   0.43879508  0.33458045  0.43826573
   0.10669989  0.66494278  0.56192083
   0.22896036  0.00127368  0.89422510
   0.66935984  0.56027200  0.22893652
   0.56162247  0.66974847  0.77996225
   0.00145992  0.22791941  0.89652877
   0.77316731  0.77204049  0.89850322
   0.66833326  0.10343794  0.23302024
   0.22840420  0.22769711  0.89512858
   0.44153433  0.33434373  0.22818250
   0.77147889  0.99972753  0.89825864
   0.56476745  0.90268114  0.56550386
   0.44076252  0.10497121  0.22852250
   0.43459823  0.10520951  0.43736583
Direct configuration=     3
   0.56594481  0.66515826  0.56715496
   0.57457590  0.79407247  0.41783972
   0.61926091  0.87981386  0.39115146
   0.61625803  0.74792553  0.39608659
   0.48566584  0.75005691  0.39822702
   0.01905044  0.33323628  0.83554310
   0.20931679  0.41998329  0.53761007
   0.55024890  0.09417422  0.20438345
   0.88043204  0.76136839  0.86614824
   0.45340051  0.54649435  0.79879590
   0.12510929  0.87810582  0.13276031
   0.09449022  0.54747797  0.80217573
   0.41872759  0.21047338  0.46326449
   0.76537088  0.88148826  0.13701664
   0.21733463  0.78320444  0.53487259
   0.90219387  0.09993420  0.12362664
   0.24214126  0.12125434  0.86673095
   0.87806135  0.43865680  0.45298844
   0.43568196  0.86907337  0.54709316
   0.98436378  0.31564459  0.16654385
   0.65166872  0.01498662  0.51186206
   0.00416145  0.65301544  0.50007155
   0.33635097  0.31418661  0.16568024
   0.98512978  0.66280697  0.16222975
   0.35464366  0.35592160  0.49995346
   0.68736372  0.01628310  0.17240881
   0.66810287  0.98406007  0.83481402
   0.99807691  0.34477199  0.50445084
   0.78564366  0.22059632  0.46317561
   0.33879487  0.01924999  0.16390937
   0.90772581  0.45108941  0.20535218
   0.31542365  0.33480100  0.83593725
   0.45616532  0.91129467  0.79462947
   0.07513445  0.66544503  0.66721770
   0.66322488  0.06762741  0.33888823
   0.00022131  0.74302701  0.99937517
   0.59472723  0.90907273  0.67024555
   0.93691699  0.60170333  0.33142026
   0.25845530  0.25703944  0.00097821
   0.40829152  0.33725897  0.33258646
   0.78953819  0.56739535  0.46165583
   0.73669953  0.99658750  0.00362169
   0.58129081  0.79944986  0.51748066
   0.60275567  0.69003864  0.67770714
   0.26111351  0.00051754  0.99929974
   0.07034035  0.40669875  0.66954336
   0.40348934  0.06895074  0.33263759
   0.33166680  0.40172600  0.66802191
   0.74964722  0.74362556  0.00486416
   0.55048482  0.45258536  0.19902492
   0.87982181  0.12014346  0.87319912
   0.33055465  0.92874188  0.66670708
   0.57038411  0.42733853  0.45624669
   0.66632926  0.59027344  0.33386161
   0.93694139  0.33197464  0.33460324
   0.35062054  0.99846722  0.49911252
   0.31610400  0.98204443  0.83386728
   0.90673719  0.80279646  0.13076625
   0.23669485  0.76612843  0.79020005
   0.12138993  0.23744111  0.13562383
   0.56547357  0.14015615  0.45606482
   0.23482366  0.46900599  0.79048650
   0.19987889  0.09715222  0.12576456
   0.00637357  0.26266353  0.00160113
   0.09962485  0.90307551  0.87521409
   0.80103984  0.90060119  0.87909420
   0.42587663  0.56982383  0.54808547
   0.52752793  0.76487356  0.80874965
   0.76996682  0.53221689  0.21083146
   0.13233399  0.56319067  0.54210991
   0.47121030  0.23437640  0.21226237
   0.65652147  0.64555344  0.50107920
   0.76941755  0.23195188  0.21704732
   0.66221437  0.68146815  0.84517157
   0.02059569  0.68750933  0.83319862
   0.09872630  0.19595878  0.87588598
   0.68890085  0.66781514  0.16967875
   0.56106901  0.89104108  0.77773100
   0.00034769  0.77394539  0.89380271
   0.89924744  0.33265082  0.23102149
   0.77333858  0.99907849  0.10812674
   0.10385245  0.43486801  0.56417743
   0.33400685  0.43858010  0.77206648
   0.00388599  0.77183439  0.10568887
   0.33395502  0.89589325  0.77149240
   0.23093133  0.99920962  0.10501171
   0.22913429  0.22606313  0.10652169
   0.10561157  0.43915548  0.77414620
   0.66599509  0.11216581  0.44123026
   0.00345065  0.22840767  0.10637668
   0.90066016  0.33501835  0.43814253
   0.33254074  0.89515634  0.56251248
   0.90219512  0.56555768  0.43592568
   0.10683263  0.66678150  0.77285312
   0.33323813  0.44007266  0.56345253
   0.89927424  0.56206150  0.22798764
   0.77825240  0.77394407  0.11011561
   0.66960770  0.55800808  0.43941446
   0.43879330  0.33458139  0.43826677
   0.10669844  0.66494296  0.56191780
   0.22896156  0.00127807  0.89422683
   0.66936449  0.56027283  0.22893408
   0.56162177  0.66975440  0.77996401
   0.00146718  0.22791643  0.89652822
   0.77316801  0.77204152  0.89850348
   0.66833438  0.10344005  0.23301518
   0.22841264  0.22769851  0.89513281
   0.44152832  0.33434038  0.22818596
   0.77147578  0.99972352  0.89825708
   0.56476875  0.90267961  0.56551013
   0.44076444  0.10496992  0.22852156
   0.43459340  0.10520536  0.43736693
Direct configuration=     4
   0.56594889  0.66515853  0.56715298
   0.57451842  0.79404485  0.41783300
   0.61919234  0.87977395  0.39114254
   0.61618392  0.74789206  0.39607606
   0.48559788  0.75002939  0.39825118
   0.01905592  0.33323754  0.83554278
   0.20931780  0.41998383  0.53760936
   0.55025225  0.09417577  0.20438289
   0.88043227  0.76136923  0.86614811
   0.45340675  0.54649582  0.79879007
   0.12511356  0.87810940  0.13276272
   0.09449162  0.54747879  0.80217691
   0.41873592  0.21047964  0.46326196
   0.76537210  0.88148947  0.13701476
   0.21733446  0.78320541  0.53487306
   0.90219557  0.09993431  0.12362690
   0.24214982  0.12125969  0.86673014
   0.87806062  0.43865653  0.45298321
   0.43568389  0.86908349  0.54709599
   0.98436469  0.31564727  0.16654371
   0.65166955  0.01497941  0.51185975
   0.00416171  0.65301452  0.50007166
   0.33635083  0.31418676  0.16568027
   0.98513336  0.66280803  0.16222777
   0.35464162  0.35591581  0.49995437
   0.68736600  0.01628403  0.17240733
   0.66810370  0.98406144  0.83481159
   0.99807384  0.34477279  0.50445194
   0.78565369  0.22060714  0.46317674
   0.33879645  0.01924958  0.16390840
   0.90773205  0.45109028  0.20535635
   0.31542870  0.33480477  0.83594238
   0.45617165  0.91129623  0.79462493
   0.07513621  0.66544476  0.66721541
   0.66322876  0.06762982  0.33888657
   0.00022681  0.74303202  0.99937427
   0.59473220  0.90907474  0.67024902
   0.93691778  0.60171017  0.33142088
   0.25845826  0.25703751  0.00097980
   0.40829906  0.33726615  0.33258560
   0.78954456  0.56739719  0.46165777
   0.73670324  0.99659111  0.00362146
   0.58127182  0.79944184  0.51748543
   0.60276508  0.69004505  0.67770638
   0.26111291  0.00051885  0.99930189
   0.07034567  0.40670196  0.66954230
   0.40349193  0.06894824  0.33263795
   0.33166151  0.40172042  0.66802303
   0.74964927  0.74362453  0.00486275
   0.55048829  0.45258556  0.19902130
   0.87982277  0.12014085  0.87319736
   0.33054950  0.92874320  0.66670855
   0.57038371  0.42734349  0.45625275
   0.66633126  0.59026971  0.33386029
   0.93694181  0.33196902  0.33460407
   0.35061689  0.99846996  0.49911490
   0.31610635  0.98204287  0.83387294
   0.90673867  0.80279672  0.13076647
   0.23669919  0.76612948  0.79019943
   0.12139405  0.23744303  0.13562542
   0.56547037  0.14014830  0.45606730
   0.23483072  0.46901108  0.79048780
   0.19988077  0.09715509  0.12577021
   0.00637726  0.26266293  0.00160289
   0.09962883  0.90308039  0.87521214
   0.80104109  0.90060061  0.87909412
   0.42587828  0.56981648  0.54808855
   0.52753175  0.76487257  0.80874727
   0.76997301  0.53221870  0.21082848
   0.13233813  0.56319384  0.54211039
   0.47121163  0.23437596  0.21226482
   0.65652465  0.64556315  0.50107255
   0.76942154  0.23195565  0.21704581
   0.66221838  0.68146868  0.84516999
   0.02059840  0.68751027  0.83319838
   0.09873355  0.19595957  0.87588604
   0.68890275  0.66781803  0.16967755
   0.56107313  0.89104209  0.77772692
   0.00035067  0.77394923  0.89380268
   0.89925009  0.33264914  0.23102199
   0.77334281  0.99908082  0.10812552
   0.10385698  0.43487235  0.56417847
   0.33400716  0.43858059  0.77206623
   0.00388973  0.77183821  0.10568769
   0.33395324  0.89589308  0.77148871
   0.23093092  0.99920817  0.10501315
   0.22913527  0.22606394  0.10652749
   0.10561757  0.43915950  0.77414918
   0.66599487  0.11215965  0.44123066
   0.00345204  0.22840776  0.10637506
   0.90065821  0.33501086  0.43814191
   0.33253708  0.89516693  0.56251446
   0.90219357  0.56556352  0.43592524
   0.10683961  0.66678174  0.77285323
   0.33323873  0.44006790  0.56345324
   0.89927309  0.56206316  0.22799121
   0.77825496  0.77394418  0.11011647
   0.66960923  0.55801368  0.43941352
   0.43879395  0.33458626  0.43826626
   0.10670135  0.66494327  0.56191918
   0.22896444  0.00127882  0.89422803
   0.66937225  0.56027153  0.22893294
   0.56162745  0.66976089  0.77995936
   0.00147340  0.22791610  0.89652646
   0.77317340  0.77204467  0.89850219
   0.66833437  0.10344096  0.23301411
   0.22841718  0.22769918  0.89513348
   0.44153054  0.33434254  0.22819019
   0.77148364  0.99972686  0.89825629
   0.56477618  0.90268732  0.56550533
   0.44076993  0.10497070  0.22852374
   0.43459430  0.10519949  0.43736761
Direct configuration=     5
   0.56594868  0.66515873  0.56715363
   0.57449295  0.79403195  0.41783730
   0.61917478  0.87976758  0.39113796
   0.61616403  0.74787951  0.39607165
   0.48557980  0.75002221  0.39825873
   0.01905738  0.33323753  0.83554298
   0.20931885  0.41998398  0.53760913
   0.55025293  0.09417615  0.20438244
   0.88043467  0.76136977  0.86614784
   0.45340840  0.54649625  0.79878789
   0.12511290  0.87810860  0.13276354
   0.09449232  0.54747874  0.80217756
   0.41873849  0.21047935  0.46326069
   0.76537273  0.88148947  0.13701414
   0.21733586  0.78320742  0.53487339
   0.90219728  0.09993533  0.12362713
   0.24215235  0.12125965  0.86673006
   0.87806139  0.43865729  0.45298085
   0.43568467  0.86908792  0.54709726
   0.98436611  0.31564675  0.16654245
   0.65167399  0.01498209  0.51185698
   0.00416290  0.65301455  0.50007221
   0.33635342  0.31418819  0.16568202
   0.98513343  0.66280760  0.16222792
   0.35464032  0.35591418  0.49995484
   0.68736672  0.01628483  0.17240714
   0.66810628  0.98406210  0.83481231
   0.99807591  0.34477484  0.50445367
   0.78564564  0.22059950  0.46317734
   0.33879841  0.01925056  0.16390901
   0.90773379  0.45109232  0.20535819
   0.31543043  0.33480684  0.83594325
   0.45616988  0.91129639  0.79462308
   0.07513698  0.66544470  0.66721694
   0.66322995  0.06763013  0.33888667
   0.00022861  0.74303378  0.99937424
   0.59473386  0.90907576  0.67024496
   0.93691799  0.60171251  0.33142125
   0.25845863  0.25703645  0.00098153
   0.40830054  0.33726854  0.33258694
   0.78954051  0.56739793  0.46165863
   0.73670465  0.99659223  0.00362056
   0.58126694  0.79943878  0.51748272
   0.60276824  0.69004711  0.67770425
   0.26111263  0.00051932  0.99930215
   0.07034757  0.40670327  0.66954397
   0.40349258  0.06894700  0.33263828
   0.33165982  0.40171841  0.66802340
   0.74965040  0.74362475  0.00486301
   0.55048961  0.45258560  0.19902056
   0.87982668  0.12014347  0.87319664
   0.33054767  0.92874452  0.66670883
   0.57038433  0.42734585  0.45625442
   0.66633231  0.59026896  0.33385953
   0.93694204  0.33196733  0.33460363
   0.35061536  0.99847211  0.49911489
   0.31610795  0.98204170  0.83387354
   0.90673994  0.80279717  0.13076655
   0.23670065  0.76612952  0.79019921
   0.12139303  0.23744362  0.13562600
   0.56547171  0.14014592  0.45606845
   0.23483201  0.46901285  0.79048837
   0.19988146  0.09715416  0.12577173
   0.00637840  0.26266274  0.00160125
   0.09962918  0.90308123  0.87521161
   0.80104187  0.90060130  0.87909399
   0.42588024  0.56981547  0.54808943
   0.52753274  0.76487443  0.80874675
   0.76997359  0.53221859  0.21082733
   0.13233960  0.56319467  0.54211030
   0.47121196  0.23437638  0.21226583
   0.65652646  0.64556642  0.50107036
   0.76942082  0.23195474  0.21704546
   0.66221959  0.68146955  0.84516925
   0.02059993  0.68751117  0.83319819
   0.09873470  0.19595946  0.87588588
   0.68890276  0.66781665  0.16967855
   0.56107394  0.89104191  0.77772757
   0.00035174  0.77394939  0.89380133
   0.89925085  0.33265015  0.23102282
   0.77334261  0.99908071  0.10812542
   0.10385624  0.43487148  0.56417753
   0.33400960  0.43858131  0.77206663
   0.00389044  0.77183803  0.10568822
   0.33395653  0.89589458  0.77149051
   0.23093277  0.99921101  0.10501418
   0.22913624  0.22606406  0.10652616
   0.10561827  0.43915931  0.77414823
   0.66599823  0.11216269  0.44123053
   0.00345316  0.22840850  0.10637637
   0.90066126  0.33501629  0.43814138
   0.33253704  0.89516453  0.56251472
   0.90219600  0.56556154  0.43592533
   0.10683881  0.66678238  0.77285289
   0.33323755  0.44006667  0.56345376
   0.89927755  0.56206417  0.22798979
   0.77825504  0.77394466  0.11011533
   0.66961102  0.55801367  0.43941375
   0.43879565  0.33458607  0.43826650
   0.10670124  0.66494369  0.56191819
   0.22896545  0.00128032  0.89422836
   0.66937145  0.56027212  0.22893161
   0.56162896  0.66975961  0.77995973
   0.00147356  0.22791595  0.89652672
   0.77317202  0.77204351  0.89850236
   0.66833717  0.10344211  0.23301348
   0.22841912  0.22770012  0.89513451
   0.44153193  0.33434316  0.22818787
   0.77148127  0.99972562  0.89825581
   0.56477190  0.90268386  0.56550962
   0.44076860  0.10497011  0.22852303
   0.43459447  0.10520266  0.43736746
Direct configuration=     6
   0.56594997  0.66515892  0.56715289
   0.57444153  0.79400747  0.41784096
   0.61910821  0.87973238  0.39112742
   0.61609126  0.74784294  0.39606021
   0.48550618  0.74999149  0.39828197
   0.01906299  0.33323807  0.83554319
   0.20931949  0.41998429  0.53760829
   0.55025515  0.09417752  0.20438160
   0.88043818  0.76137126  0.86614723
   0.45341377  0.54649730  0.79878130
   0.12511474  0.87810985  0.13276611
   0.09449444  0.54747949  0.80217923
   0.41874670  0.21048396  0.46325727
   0.76537440  0.88149000  0.13701224
   0.21733599  0.78320902  0.53487422
   0.90219967  0.09993580  0.12362773
   0.24216080  0.12126336  0.86672959
   0.87806204  0.43865811  0.45297456
   0.43568804  0.86910040  0.54710094
   0.98436782  0.31564822  0.16654158
   0.65167860  0.01497705  0.51185441
   0.00416409  0.65301401  0.50007276
   0.33635555  0.31418977  0.16568410
   0.98513630  0.66280905  0.16222639
   0.35463711  0.35590803  0.49995570
   0.68736915  0.01628655  0.17240600
   0.66810917  0.98406297  0.83481127
   0.99807573  0.34477730  0.50445568
   0.78564550  0.22060006  0.46317863
   0.33880165  0.01925157  0.16390910
   0.90773976  0.45109515  0.20536359
   0.31543579  0.33481211  0.83594739
   0.45617286  0.91129744  0.79461767
   0.07513929  0.66544461  0.66721783
   0.66323378  0.06763198  0.33888554
   0.00023443  0.74303950  0.99937336
   0.59474001  0.90907868  0.67024355
   0.93691877  0.60171977  0.33142132
   0.25846062  0.25703366  0.00098343
   0.40830647  0.33727601  0.33258686
   0.78954253  0.56740015  0.46166103
   0.73670878  0.99659586  0.00361943
   0.58124770  0.79942906  0.51747929
   0.60277791  0.69005370  0.67770238
   0.26111175  0.00052092  0.99930389
   0.07035346  0.40670706  0.66954469
   0.40349500  0.06894383  0.33263867
   0.33165428  0.40171181  0.66802476
   0.74965318  0.74362465  0.00486274
   0.55049353  0.45258543  0.19901780
   0.87983141  0.12014392  0.87319467
   0.33054202  0.92874778  0.66671041
   0.57038458  0.42735173  0.45626004
   0.66633503  0.59026552  0.33385737
   0.93694335  0.33196181  0.33460426
   0.35061062  0.99847591  0.49911691
   0.31611132  0.98203995  0.83387802
   0.90674155  0.80279790  0.13076670
   0.23670401  0.76612900  0.79019839
   0.12139533  0.23744547  0.13562783
   0.56546989  0.14013776  0.45607120
   0.23483679  0.46901818  0.79049009
   0.19988331  0.09715527  0.12577712
   0.00638212  0.26266172  0.00160010
   0.09963089  0.90308404  0.87520983
   0.80104400  0.90060240  0.87909369
   0.42588440  0.56981000  0.54809239
   0.52753568  0.76487552  0.80874513
   0.76997677  0.53221913  0.21082405
   0.13234425  0.56319685  0.54211001
   0.47121285  0.23437647  0.21226907
   0.65653021  0.64557555  0.50106312
   0.76942280  0.23195635  0.21704406
   0.66222291  0.68147064  0.84516712
   0.02060431  0.68751400  0.83319785
   0.09873751  0.19595953  0.87588580
   0.68890449  0.66781722  0.16967870
   0.56107706  0.89104484  0.77772694
   0.00035593  0.77395145  0.89379976
   0.89925329  0.33265119  0.23102208
   0.77334459  0.99908208  0.10812447
   0.10385916  0.43487303  0.56417879
   0.33401369  0.43858289  0.77206706
   0.00389270  0.77183785  0.10568874
   0.33395917  0.89589587  0.77149171
   0.23093534  0.99921307  0.10501682
   0.22913804  0.22606483  0.10652833
   0.10562213  0.43916052  0.77414861
   0.66599986  0.11216289  0.44122948
   0.00345535  0.22840968  0.10637580
   0.90066033  0.33501609  0.43814240
   0.33253701  0.89516728  0.56251582
   0.90219538  0.56556181  0.43592590
   0.10684066  0.66678359  0.77285329
   0.33323646  0.44006315  0.56345541
   0.89929198  0.56207241  0.22799034
   0.77825613  0.77394425  0.11011462
   0.66961191  0.55801648  0.43941354
   0.43879981  0.33458781  0.43826854
   0.10670372  0.66494571  0.56191851
   0.22896890  0.00128167  0.89422871
   0.66937282  0.56027175  0.22892936
   0.56163448  0.66976005  0.77995648
   0.00147791  0.22791669  0.89652648
   0.77317348  0.77204290  0.89850232
   0.66834071  0.10344340  0.23301336
   0.22842522  0.22770235  0.89513654
   0.44154143  0.33434793  0.22818298
   0.77148366  0.99972762  0.89825480
   0.56476915  0.90268489  0.56550790
   0.44076982  0.10497033  0.22852335
   0.43459806  0.10520479  0.43736738
Direct configuration=     7
   0.56595139  0.66515932  0.56715246
   0.57441436  0.79399432  0.41783951
   0.61908731  0.87972241  0.39112363
   0.61606799  0.74783047  0.39605631
   0.48548858  0.74998458  0.39829093
   0.01906479  0.33323859  0.83554303
   0.20932021  0.41998441  0.53760796
   0.55025630  0.09417809  0.20438150
   0.88043870  0.76137167  0.86614717
   0.45341598  0.54649792  0.79877930
   0.12511552  0.87811057  0.13276676
   0.09449503  0.54747969  0.80217946
   0.41874934  0.21048502  0.46325657
   0.76537491  0.88149026  0.13701151
   0.21733670  0.78321000  0.53487435
   0.90220057  0.09993618  0.12362785
   0.24216354  0.12126483  0.86672950
   0.87806210  0.43865822  0.45297265
   0.43568819  0.86910370  0.54710178
   0.98436830  0.31564857  0.16654112
   0.65168028  0.01497646  0.51185277
   0.00416421  0.65301346  0.50007282
   0.33635626  0.31419014  0.16568434
   0.98513886  0.66281019  0.16222524
   0.35463624  0.35590637  0.49995626
   0.68737000  0.01628692  0.17240551
   0.66810993  0.98406353  0.83481088
   0.99807548  0.34477828  0.50445630
   0.78564684  0.22060170  0.46317920
   0.33880240  0.01925164  0.16390892
   0.90774224  0.45109653  0.20536521
   0.31543743  0.33481362  0.83594886
   0.45617419  0.91129811  0.79461621
   0.07513997  0.66544459  0.66721746
   0.66323507  0.06763250  0.33888526
   0.00023636  0.74304118  0.99937343
   0.59474156  0.90907940  0.67024313
   0.93691953  0.60172233  0.33142263
   0.25846145  0.25703294  0.00098434
   0.40830961  0.33727848  0.33258562
   0.78954291  0.56740072  0.46166178
   0.73671003  0.99659706  0.00361916
   0.58124201  0.79942657  0.51747985
   0.60278103  0.69005577  0.67770159
   0.26111150  0.00052152  0.99930454
   0.07035511  0.40670801  0.66954476
   0.40349592  0.06894307  0.33263877
   0.33165250  0.40170969  0.66802535
   0.74965386  0.74362438  0.00486227
   0.55049599  0.45258672  0.19901597
   0.87983236  0.12014360  0.87319409
   0.33054039  0.92874845  0.66671103
   0.57038504  0.42735362  0.45626217
   0.66633569  0.59026431  0.33385702
   0.93694326  0.33196004  0.33460461
   0.35060968  0.99847730  0.49911744
   0.31611275  0.98203975  0.83387952
   0.90674231  0.80279782  0.13076666
   0.23670538  0.76612917  0.79019817
   0.12139631  0.23744610  0.13562827
   0.56546951  0.14013566  0.45607231
   0.23483942  0.46901974  0.79049052
   0.19988410  0.09715590  0.12577883
   0.00638337  0.26266165  0.00160055
   0.09963208  0.90308541  0.87520918
   0.80104422  0.90060189  0.87909373
   0.42588510  0.56980777  0.54809344
   0.52753710  0.76487570  0.80874426
   0.76998114  0.53222030  0.21082338
   0.13234560  0.56319790  0.54211007
   0.47121358  0.23437610  0.21226975
   0.65653111  0.64557900  0.50106127
   0.76942404  0.23195747  0.21704354
   0.66222424  0.68147083  0.84516672
   0.02060533  0.68751470  0.83319787
   0.09874052  0.19595976  0.87588592
   0.68890501  0.66781794  0.16967834
   0.56107838  0.89104443  0.77772567
   0.00035684  0.77395262  0.89379987
   0.89925393  0.33265071  0.23102298
   0.77334558  0.99908241  0.10812430
   0.10385968  0.43487382  0.56417872
   0.33401323  0.43858295  0.77206700
   0.00389386  0.77184000  0.10568793
   0.33395863  0.89589550  0.77149089
   0.23093511  0.99921280  0.10501730
   0.22913876  0.22606514  0.10652965
   0.10562356  0.43916170  0.77414948
   0.66600011  0.11216057  0.44122997
   0.00345593  0.22840968  0.10637567
   0.90066072  0.33501511  0.43814186
   0.33253584  0.89517006  0.56251654
   0.90219589  0.56556342  0.43592550
   0.10684231  0.66678333  0.77285345
   0.33323641  0.44006135  0.56345539
   0.89928872  0.56207136  0.22799076
   0.77825691  0.77394445  0.11011500
   0.66961300  0.55801783  0.43941305
   0.43879990  0.33458939  0.43826746
   0.10670411  0.66494529  0.56191895
   0.22896917  0.00128183  0.89422912
   0.66937596  0.56027203  0.22892895
   0.56163587  0.66976190  0.77995545
   0.00147892  0.22791646  0.89652597
   0.77317531  0.77204400  0.89850196
   0.66834068  0.10344378  0.23301297