 112 112   0   0
  0.2170079E+02  0.1372957E-08  0.1373220E-08  0.1489038E-08  0.5000000E-15
  1.000000000000000E-004
  CAR 
 unknown system                          
      8.31815668    -24.11105232  301     -1.83961743      1.00000000
    -24.111  0.0000E+00  0.0000E+00
    -24.003  0.0000E+00  0.0000E+00
    -23.895  0.0000E+00  0.0000E+00
    -23.787  0.0000E+00  0.0000E+00
    -23.679  0.0000E+00  0.0000E+00
    -23.571  0.0000E+00  0.0000E+00
    -23.462  0.0000E+00  0.0000E+00
    -23.354  0.0000E+00  0.0000E+00
    -23.246  0.0000E+00  0.0000E+00
    -23.138  0.2522E-13  0.2726E-14
    -23.030  0.5019E-09  0.5426E-10
    -22.922  0.1030E-05  0.1114E-06
    -22.814  0.2277E-03  0.2473E-04
    -22.706  0.5889E-02  0.6613E-03
    -22.598  0.2019E-01  0.2843E-02
    -22.490  0.1001E-01  0.3926E-02
    -22.381  0.6809E-03  0.3999E-02
    -22.273  0.1509E-04  0.4001E-02
    -22.165  0.9498E-03  0.4104E-02
    -22.057  0.1162E-01  0.5360E-02
    -21.949  0.2290E-01  0.7835E-02
    -21.841  0.4240E-01  0.1242E-01
    -21.733  0.8483E-01  0.2159E-01
    -21.625  0.6924E-01  0.2907E-01
    -21.517  0.4774E-01  0.3423E-01
    -21.409  0.8869E-01  0.4382E-01
    -21.301  0.1164E+00  0.5640E-01
    -21.192  0.8950E-01  0.6608E-01
    -21.084  0.8166E-01  0.7491E-01
    -20.976  0.8447E-01  0.8404E-01
    -20.868  0.9401E-01  0.9420E-01
    -20.760  0.9837E-01  0.1048E+00
    -20.652  0.7634E-01  0.1131E+00
    -20.544  0.5477E-01  0.1190E+00
    -20.436  0.7507E-01  0.1271E+00
    -20.328  0.9054E-01  0.1369E+00
    -20.220  0.1044E+00  0.1482E+00
    -20.111  0.1910E+00  0.1688E+00
    -20.003  0.3742E+00  0.2093E+00
    -19.895  0.3436E+00  0.2464E+00
    -19.787  0.1684E+00  0.2646E+00
    -19.679  0.8277E-01  0.2736E+00
    -19.571  0.2095E-01  0.2759E+00
    -19.463  0.1504E-02  0.2760E+00
    -19.355  0.4838E-02  0.2765E+00
    -19.247  0.1960E-01  0.2787E+00
    -19.139  0.1201E-01  0.2800E+00
    -19.030  0.1128E-01  0.2812E+00
    -18.922  0.3497E-01  0.2850E+00
    -18.814  0.2469E-01  0.2876E+00
    -18.706  0.3412E-02  0.2880E+00
    -18.598  0.7100E-04  0.2880E+00
    -18.490  0.1778E-06  0.2880E+00
    -18.382  0.4799E-10  0.2880E+00
    -18.274  0.1331E-14  0.2880E+00
    -18.166  0.0000E+00  0.2880E+00
    -18.058  0.0000E+00  0.2880E+00
    -17.950  0.0000E+00  0.2880E+00
    -17.841  0.0000E+00  0.2880E+00
    -17.733  0.0000E+00  0.2880E+00
    -17.625  0.0000E+00  0.2880E+00
    -17.517  0.0000E+00  0.2880E+00
    -17.409  0.0000E+00  0.2880E+00
    -17.301  0.0000E+00  0.2880E+00
    -17.193  0.0000E+00  0.2880E+00
    -17.085  0.0000E+00  0.2880E+00
    -16.977  0.0000E+00  0.2880E+00
    -16.869  0.0000E+00  0.2880E+00
    -16.760  0.0000E+00  0.2880E+00
    -16.652  0.0000E+00  0.2880E+00
    -16.544  0.0000E+00  0.2880E+00
    -16.436  0.0000E+00  0.2880E+00
    -16.328  0.0000E+00  0.2880E+00
    -16.220  0.0000E+00  0.2880E+00
    -16.112  0.0000E+00  0.2880E+00
    -16.004  0.0000E+00  0.2880E+00
    -15.896  0.0000E+00  0.2880E+00
    -15.788  0.0000E+00  0.2880E+00
    -15.679  0.0000E+00  0.2880E+00
    -15.571  0.0000E+00  0.2880E+00
    -15.463  0.0000E+00  0.2880E+00
    -15.355  0.0000E+00  0.2880E+00
    -15.247  0.0000E+00  0.2880E+00
    -15.139  0.0000E+00  0.2880E+00
    -15.031  0.0000E+00  0.2880E+00
    -14.923  0.0000E+00  0.2880E+00
    -14.815  0.0000E+00  0.2880E+00
    -14.707  0.0000E+00  0.2880E+00
    -14.598  0.0000E+00  0.2880E+00
    -14.490  0.0000E+00  0.2880E+00
    -14.382  0.0000E+00  0.2880E+00
    -14.274  0.0000E+00  0.2880E+00
    -14.166  0.0000E+00  0.2880E+00
    -14.058  0.5957E-16  0.2880E+00
    -13.950  0.3932E-11  0.2880E+00
    -13.842  0.2613E-07  0.2880E+00
    -13.734  0.1821E-04  0.2880E+00
    -13.626  0.1414E-02  0.2882E+00
    -13.518  0.1360E-01  0.2896E+00
    -13.409  0.1833E-01  0.2916E+00
    -13.301  0.3547E-02  0.2920E+00
    -13.193  0.8850E-04  0.2920E+00
    -13.085  0.2528E-06  0.2920E+00
    -12.977  0.7691E-10  0.2920E+00
    -12.869  0.2399E-14  0.2920E+00
    -12.761  0.9901E-15  0.2920E+00
    -12.653  0.3782E-10  0.2920E+00
    -12.545  0.1477E-06  0.2920E+00
    -12.437  0.6121E-04  0.2920E+00
    -12.328  0.2882E-02  0.2923E+00
    -12.220  0.1733E-01  0.2942E+00
    -12.112  0.1489E-01  0.2958E+00
    -12.004  0.1806E-02  0.2960E+00
    -11.896  0.8944E-04  0.2960E+00
    -11.788  0.3347E-02  0.2964E+00
    -11.680  0.2628E-01  0.2992E+00
    -11.572  0.3739E-01  0.3033E+00
    -11.464  0.3073E-01  0.3066E+00
    -11.356  0.5039E-01  0.3120E+00
    -11.247  0.4946E-01  0.3174E+00
    -11.139  0.2283E-01  0.3198E+00
    -11.031  0.1150E-01  0.3211E+00
    -10.923  0.3119E-01  0.3244E+00
    -10.815  0.3055E-01  0.3278E+00
    -10.707  0.3819E-01  0.3319E+00
    -10.599  0.7734E-01  0.3402E+00
    -10.491  0.8467E-01  0.3494E+00
    -10.383  0.5938E-01  0.3558E+00
    -10.275  0.4884E-01  0.3611E+00
    -10.166  0.2791E-01  0.3641E+00
    -10.058  0.2020E-01  0.3663E+00
     -9.950  0.1774E-01  0.3682E+00
     -9.842  0.3215E-01  0.3717E+00
     -9.734  0.6272E-01  0.3785E+00
     -9.626  0.5886E-01  0.3848E+00
     -9.518  0.5151E-01  0.3904E+00
     -9.410  0.3842E-01  0.3945E+00
     -9.302  0.2045E-01  0.3968E+00
     -9.194  0.3646E-01  0.4007E+00
     -9.086  0.4652E-01  0.4057E+00
     -8.977  0.1928E-01  0.4078E+00
     -8.869  0.2333E-02  0.4081E+00
     -8.761  0.1435E-01  0.4096E+00
     -8.653  0.5580E-01  0.4156E+00
     -8.545  0.7219E-01  0.4235E+00
     -8.437  0.8549E-01  0.4327E+00
     -8.329  0.1157E+00  0.4452E+00
     -8.221  0.1331E+00  0.4596E+00
     -8.113  0.1455E+00  0.4753E+00
     -8.005  0.1283E+00  0.4892E+00
     -7.896  0.1480E+00  0.5052E+00
     -7.788  0.1777E+00  0.5244E+00
     -7.680  0.1281E+00  0.5382E+00
     -7.572  0.7479E-01  0.5463E+00
     -7.464  0.6340E-01  0.5532E+00
     -7.356  0.7091E-01  0.5608E+00
     -7.248  0.7155E-01  0.5686E+00
     -7.140  0.5141E-01  0.5741E+00
     -7.032  0.3331E-01  0.5777E+00
     -6.924  0.1837E-01  0.5797E+00
     -6.815  0.2613E-02  0.5800E+00
     -6.707  0.2378E-03  0.5800E+00
     -6.599  0.5341E-02  0.5806E+00
     -6.491  0.2205E-01  0.5830E+00
     -6.383  0.3525E-01  0.5868E+00
     -6.275  0.5583E-01  0.5928E+00
     -6.167  0.5552E-01  0.5988E+00
     -6.059  0.8974E-01  0.6085E+00
     -5.951  0.1265E+00  0.6222E+00
     -5.843  0.1614E+00  0.6397E+00
     -5.735  0.1463E+00  0.6555E+00
     -5.626  0.1233E+00  0.6688E+00
     -5.518  0.1001E+00  0.6796E+00
     -5.410  0.7729E-01  0.6880E+00
     -5.302  0.4495E-01  0.6928E+00
     -5.194  0.6797E-01  0.7002E+00
     -5.086  0.1069E+00  0.7117E+00
     -4.978  0.1481E+00  0.7277E+00
     -4.870  0.1653E+00  0.7456E+00
     -4.762  0.1270E+00  0.7593E+00
     -4.654  0.1476E+00  0.7753E+00
     -4.545  0.2393E+00  0.8012E+00
     -4.437  0.2969E+00  0.8333E+00
     -4.329  0.3014E+00  0.8658E+00
     -4.221  0.2868E+00  0.8968E+00
     -4.113  0.2579E+00  0.9247E+00
     -4.005  0.2451E+00  0.9512E+00
     -3.897  0.2504E+00  0.9783E+00
     -3.789  0.2280E+00  0.1003E+01
     -3.681  0.1880E+00  0.1023E+01
     -3.573  0.1496E+00  0.1039E+01
     -3.464  0.9783E-01  0.1050E+01
     -3.356  0.6695E-01  0.1057E+01
     -3.248  0.9977E-01  0.1068E+01
     -3.140  0.1177E+00  0.1081E+01
     -3.032  0.1405E+00  0.1096E+01
     -2.924  0.2023E+00  0.1118E+01
     -2.816  0.1762E+00  0.1137E+01
     -2.708  0.1002E+00  0.1148E+01
     -2.600  0.6787E-01  0.1155E+01
     -2.492  0.3827E-01  0.1159E+01
     -2.383  0.1953E-01  0.1161E+01
     -2.275  0.2015E-01  0.1163E+01
     -2.167  0.5101E-02  0.1164E+01
     -2.059  0.1728E-03  0.1164E+01
     -1.951  0.6805E-06  0.1164E+01
     -1.843  0.2875E-09  0.1164E+01
     -1.735  0.1251E-13  0.1164E+01
     -1.627  0.0000E+00  0.1164E+01
     -1.519  0.0000E+00  0.1164E+01
     -1.411  0.0000E+00  0.1164E+01
     -1.303  0.0000E+00  0.1164E+01
     -1.194  0.0000E+00  0.1164E+01
     -1.086  0.0000E+00  0.1164E+01
     -0.978  0.0000E+00  0.1164E+01
     -0.870  0.0000E+00  0.1164E+01
     -0.762  0.0000E+00  0.1164E+01
     -0.654  0.0000E+00  0.1164E+01
     -0.546  0.0000E+00  0.1164E+01
     -0.438  0.0000E+00  0.1164E+01
     -0.330  0.0000E+00  0.1164E+01
     -0.222  0.0000E+00  0.1164E+01
     -0.113  0.0000E+00  0.1164E+01
     -0.005  0.0000E+00  0.1164E+01
      0.103  0.0000E+00  0.1164E+01
      0.211  0.0000E+00  0.1164E+01
      0.319  0.0000E+00  0.1164E+01
      0.427  0.0000E+00  0.1164E+01
      0.535  0.0000E+00  0.1164E+01
      0.643  0.0000E+00  0.1164E+01
      0.751  0.0000E+00  0.1164E+01
      0.859  0.0000E+00  0.1164E+01
      0.968  0.0000E+00  0.1164E+01
      1.076  0.0000E+00  0.1164E+01
      1.184  0.0000E+00  0.1164E+01
      1.292  0.0000E+00  0.1164E+01
      1.400  0.0000E+00  0.1164E+01
      1.508  0.0000E+00  0.1164E+01
      1.616  0.0000E+00  0.1164E+01
      1.724  0.0000E+00  0.1164E+01
      1.832  0.0000E+00  0.1164E+01
      1.940  0.0000E+00  0.1164E+01
      2.049  0.0000E+00  0.1164E+01
      2.157  0.0000E+00  0.1164E+01
      2.265  0.0000E+00  0.1164E+01
      2.373  0.1590E-14  0.1164E+01
      2.481  0.5530E-10  0.1164E+01
      2.589  0.1970E-06  0.1164E+01
      2.697  0.7462E-04  0.1164E+01
      2.805  0.3224E-02  0.1164E+01
      2.913  0.1789E-01  0.1166E+01
      3.021  0.1421E-01  0.1168E+01
      3.129  0.1588E-02  0.1168E+01
      3.238  0.2207E-04  0.1168E+01
      3.346  0.3800E-07  0.1168E+01
      3.454  0.4517E-05  0.1168E+01
      3.562  0.6092E-03  0.1168E+01
      3.670  0.1071E-01  0.1169E+01
      3.778  0.3357E-01  0.1173E+01
      3.886  0.2690E-01  0.1176E+01
      3.994  0.1940E-01  0.1178E+01
      4.102  0.2306E-01  0.1180E+01
      4.210  0.3236E-01  0.1184E+01
      4.319  0.4788E-01  0.1189E+01
      4.427  0.3966E-01  0.1193E+01
      4.535  0.2576E-01  0.1196E+01
      4.643  0.2770E-01  0.1199E+01
      4.751  0.3242E-01  0.1203E+01
      4.859  0.1692E-01  0.1204E+01
      4.967  0.4443E-01  0.1209E+01
      5.075  0.1002E+00  0.1220E+01
      5.183  0.1266E+00  0.1234E+01
      5.291  0.9949E-01  0.1244E+01
      5.400  0.3761E-01  0.1249E+01
      5.508  0.2375E-01  0.1251E+01
      5.616  0.2020E-01  0.1253E+01
      5.724  0.3387E-01  0.1257E+01
      5.832  0.5524E-01  0.1263E+01
      5.940  0.5860E-01  0.1269E+01
      6.048  0.6259E-01  0.1276E+01
      6.156  0.1041E+00  0.1287E+01
      6.264  0.1462E+00  0.1303E+01
      6.372  0.1616E+00  0.1321E+01
      6.481  0.1511E+00  0.1337E+01
      6.589  0.1994E+00  0.1358E+01
      6.697  0.2222E+00  0.1382E+01
      6.805  0.1664E+00  0.1400E+01
      6.913  0.6131E-01  0.1407E+01
      7.021  0.8214E-02  0.1408E+01
      7.129  0.2475E-03  0.1408E+01
      7.237  0.1051E-05  0.1408E+01
      7.345  0.5044E-09  0.1408E+01
      7.453  0.2525E-13  0.1408E+01
      7.561  0.0000E+00  0.1408E+01
      7.670  0.0000E+00  0.1408E+01
      7.778  0.0000E+00  0.1408E+01
      7.886  0.0000E+00  0.1408E+01
      7.994  0.0000E+00  0.1408E+01
      8.102  0.0000E+00  0.1408E+01
      8.210  0.0000E+00  0.1408E+01
      8.318  0.0000E+00  0.1408E+01
