       N       E                     dE             d eps       ncg     rms          rms(c)
DAV:   1     0.445222813165E+04    0.44522E+04   -0.24522E+05   760   0.116E+03
DAV:   2    -0.405039326365E+03   -0.48573E+04   -0.47599E+04   864   0.326E+02
DAV:   3    -0.963684852746E+03   -0.55865E+03   -0.55643E+03   824   0.119E+02
DAV:   4    -0.976462448877E+03   -0.12778E+02   -0.12743E+02   832   0.195E+01
DAV:   5    -0.976819193197E+03   -0.35674E+00   -0.35630E+00   824   0.296E+00    0.859E+01
DAV:   6    -0.859440167091E+03    0.11738E+03   -0.50950E+02   792   0.354E+01    0.398E+01
DAV:   7    -0.858775817407E+03    0.66435E+00   -0.17385E+01   912   0.635E+00    0.150E+01
DAV:   8    -0.858296301100E+03    0.47952E+00   -0.11753E+00   832   0.232E+00    0.610E+00
DAV:   9    -0.858148387348E+03    0.14791E+00   -0.44911E-01   832   0.156E+00    0.998E-01
DAV:  10    -0.858150068425E+03   -0.16811E-02   -0.97613E-02   808   0.681E-01    0.718E-01
DAV:  11    -0.858151047972E+03   -0.97955E-03   -0.14890E-02   800   0.252E-01    0.374E-01
DAV:  12    -0.858157560100E+03   -0.65121E-02   -0.75402E-03   808   0.251E-01    0.138E-01
DAV:  13    -0.858168737829E+03   -0.11178E-01   -0.55712E-03   808   0.242E-01    0.198E-01
DAV:  14    -0.858176375226E+03   -0.76374E-02   -0.40486E-03   800   0.161E-01    0.100E-01
DAV:  15    -0.858179224434E+03   -0.28492E-02   -0.10550E-03   832   0.798E-02    0.560E-02
DAV:  16    -0.858180466807E+03   -0.12424E-02   -0.29888E-04   800   0.364E-02    0.471E-02
DAV:  17    -0.858180799220E+03   -0.33241E-03   -0.81774E-05   808   0.214E-02    0.280E-02
DAV:  18    -0.858181072089E+03   -0.27287E-03   -0.28926E-05   784   0.106E-02    0.102E-02
DAV:  19    -0.858181194532E+03   -0.12244E-03   -0.14888E-05   768   0.878E-03    0.488E-03
DAV:  20    -0.858181223674E+03   -0.29142E-04   -0.11472E-05   760   0.821E-03    0.516E-03
DAV:  21    -0.858181231907E+03   -0.82332E-05   -0.27251E-06   616   0.424E-03    0.375E-03
DAV:  22    -0.858181235132E+03   -0.32249E-05   -0.10127E-06   520   0.200E-03    0.174E-03
DAV:  23    -0.858181236619E+03   -0.14869E-05   -0.43320E-07   496   0.118E-03    0.700E-04
DAV:  24    -0.858181237104E+03   -0.48504E-06   -0.14547E-07   520   0.910E-04
   1 F= -.85818124E+03 E0= -.85818124E+03  d E =-.858181E+03
       N       E                     dE             d eps       ncg     rms          rms(c)
DAV:   1    -0.838097359001E+03    0.20084E+02   -0.35800E+03   744   0.749E+01    0.320E+01
DAV:   2    -0.849547308919E+03   -0.11450E+02   -0.19063E+02   800   0.190E+01    0.147E+01
DAV:   3    -0.848991229641E+03    0.55608E+00   -0.75161E+01   896   0.681E+00    0.119E+01
DAV:   4    -0.846263308581E+03    0.27279E+01   -0.14092E+01   808   0.519E+00    0.787E+00
DAV:   5    -0.846237256548E+03    0.26052E-01   -0.96117E+00   816   0.246E+00    0.707E+00
DAV:   6    -0.846439948252E+03   -0.20269E+00   -0.14415E+01   984   0.251E+00    0.756E+00
DAV:   7    -0.845892767690E+03    0.54718E+00   -0.12042E+00   864   0.123E+00    0.413E+00
DAV:   8    -0.845876629878E+03    0.16138E-01   -0.14638E+00   800   0.792E-01    0.354E+00
DAV:   9    -0.845924676160E+03   -0.48046E-01   -0.19341E+00  1040   0.828E-01    0.441E+00
DAV:  10    -0.845842030979E+03    0.82645E-01   -0.62623E-01   880   0.435E-01    0.109E+00
DAV:  11    -0.845854839978E+03   -0.12809E-01   -0.10648E-01   784   0.307E-01    0.956E-01
DAV:  12    -0.845854190254E+03    0.64972E-03   -0.89441E-02   864   0.231E-01    0.998E-01
DAV:  13    -0.845852137904E+03    0.20523E-02   -0.25433E-02   792   0.146E-01    0.101E-01
DAV:  14    -0.845853175258E+03   -0.10374E-02   -0.13893E-03   800   0.756E-02    0.215E-01
DAV:  15    -0.845853415774E+03   -0.24052E-03   -0.28171E-04   952   0.737E-02    0.170E-01
DAV:  16    -0.845853681836E+03   -0.26606E-03   -0.26487E-03   832   0.561E-02    0.160E-01
DAV:  17    -0.845853739177E+03   -0.57340E-04   -0.10773E-03   808   0.290E-02    0.461E-02
DAV:  18    -0.845853784779E+03   -0.45602E-04   -0.78134E-05   776   0.103E-02    0.151E-02
DAV:  19    -0.845853823389E+03   -0.38611E-04   -0.11778E-05   752   0.629E-03    0.735E-03
DAV:  20    -0.845853833603E+03   -0.10214E-04   -0.38613E-06   536   0.338E-03    0.448E-03
DAV:  21    -0.845853842288E+03   -0.86850E-05   -0.19598E-06   520   0.353E-03    0.522E-03
DAV:  22    -0.845853845284E+03   -0.29955E-05   -0.14986E-06   512   0.177E-03    0.202E-03
DAV:  23    -0.845853846918E+03   -0.16343E-05   -0.32419E-07   512   0.133E-03    0.911E-04
DAV:  24    -0.845853848206E+03   -0.12876E-05   -0.55701E-07   504   0.145E-03    0.222E-03
DAV:  25    -0.845853848323E+03   -0.11693E-06   -0.97239E-08   520   0.752E-04
   2 F= -.84585385E+03 E0= -.84581256E+03  d E =0.123274E+02
       N       E                     dE             d eps       ncg     rms          rms(c)
DAV:   1    -0.842981956959E+03    0.28719E+01   -0.19946E+03   712   0.620E+01    0.352E+01
DAV:   2    -0.868759228979E+03   -0.25777E+02   -0.33643E+02   888   0.219E+01    0.243E+01
DAV:   3    -0.864562199311E+03    0.41970E+01   -0.24926E+01   800   0.579E+00    0.150E+01
DAV:   4    -0.863779336566E+03    0.78286E+00   -0.71471E+00   784   0.318E+00    0.117E+01
DAV:   5    -0.864319056968E+03   -0.53972E+00   -0.73436E+00   936   0.171E+00    0.119E+01
DAV:   6    -0.864056643532E+03    0.26241E+00   -0.30587E-01   800   0.994E-01    0.890E+00
DAV:   7    -0.863246611104E+03    0.81003E+00   -0.30506E+00   864   0.254E+00    0.359E+00
DAV:   8    -0.863280353378E+03   -0.33742E-01   -0.47745E-01   792   0.918E-01    0.196E+00
DAV:   9    -0.863282915081E+03   -0.25617E-02   -0.39849E-02   880   0.215E-01    0.199E+00
DAV:  10    -0.863274134193E+03    0.87809E-02   -0.22487E-02   784   0.178E-01    0.101E+00
DAV:  11    -0.863274583220E+03   -0.44903E-03   -0.57669E-02   904   0.307E-01    0.770E-01
DAV:  12    -0.863273175407E+03    0.14078E-02   -0.36062E-02   808   0.205E-01    0.405E-01
DAV:  13    -0.863273774341E+03   -0.59893E-03   -0.25671E-02   968   0.155E-01    0.649E-01
DAV:  14    -0.863272263324E+03    0.15110E-02   -0.25358E-02   784   0.123E-01    0.287E-01
DAV:  15    -0.863272705718E+03   -0.44239E-03   -0.86098E-04   808   0.637E-02    0.229E-01
DAV:  16    -0.863272657785E+03    0.47933E-04   -0.18834E-04   800   0.192E-02    0.173E-01
DAV:  17    -0.863272835096E+03   -0.17731E-03   -0.10178E-04   776   0.334E-02    0.142E-01
DAV:  18    -0.863272974691E+03   -0.13959E-03   -0.34425E-04   792   0.319E-02    0.729E-02
DAV:  19    -0.863272988467E+03   -0.13777E-04   -0.10266E-04   816   0.119E-02    0.279E-02
DAV:  20    -0.863273013446E+03   -0.24979E-04   -0.55445E-06   704   0.433E-03    0.205E-02
DAV:  21    -0.863273056640E+03   -0.43194E-04   -0.17782E-05   744   0.632E-03    0.563E-03
DAV:  22    -0.863273069568E+03   -0.12928E-04   -0.79385E-06   576   0.390E-03    0.175E-02
DAV:  23    -0.863273076208E+03   -0.66407E-05   -0.25373E-06   512   0.270E-03    0.106E-02
DAV:  24    -0.863273079914E+03   -0.37057E-05   -0.23303E-06   528   0.159E-03    0.338E-03
DAV:  25    -0.863273081893E+03   -0.19792E-05   -0.49629E-07   512   0.129E-03    0.212E-03
DAV:  26    -0.863273082268E+03   -0.37464E-06   -0.94696E-08   520   0.714E-04
   3 F= -.86327308E+03 E0= -.86324445E+03  d E =-.509185E+01
       N       E                     dE             d eps       ncg     rms          rms(c)
DAV:   1    -0.863307240685E+03   -0.34159E-01   -0.16487E+00   704   0.183E+00    0.156E+00
DAV:   2    -0.863506877535E+03   -0.19964E+00   -0.25173E+00   840   0.843E-01    0.586E+00
DAV:   3    -0.863280841275E+03    0.22604E+00   -0.82050E-01   968   0.600E-01    0.865E-01
DAV:   4    -0.863299628401E+03   -0.18787E-01   -0.33999E-02   768   0.194E-01    0.175E-01
DAV:   5    -0.863301780853E+03   -0.21525E-02   -0.18673E-03   752   0.724E-02    0.153E-01
DAV:   6    -0.863301814982E+03   -0.34129E-04   -0.18980E-03   800   0.426E-02    0.102E-01
DAV:   7    -0.863301839726E+03   -0.24744E-04   -0.10616E-04   792   0.180E-02    0.804E-02
DAV:   8    -0.863301813634E+03    0.26092E-04   -0.71842E-05   816   0.619E-03    0.340E-02
DAV:   9    -0.863301814517E+03   -0.88278E-06   -0.44120E-05   712   0.822E-03    0.114E-02
DAV:  10    -0.863301816413E+03   -0.18956E-05   -0.76103E-06   752   0.866E-03    0.330E-03
DAV:  11    -0.863301817037E+03   -0.62383E-06   -0.27958E-06   560   0.367E-03
   4 F= -.86330182E+03 E0= -.86327247E+03  d E =-.512058E+01
       N       E                     dE             d eps       ncg     rms          rms(c)
DAV:   1    -0.860919641385E+03    0.23822E+01   -0.91644E+02   736   0.474E+01    0.159E+01
DAV:   2    -0.865837777664E+03   -0.49181E+01   -0.66815E+01   816   0.950E+00    0.147E+01
DAV:   3    -0.864482164579E+03    0.13556E+01   -0.35243E+01   944   0.333E+00    0.806E+00
DAV:   4    -0.863683575204E+03    0.79859E+00   -0.12406E+00   880   0.190E+00    0.538E+00
DAV:   5    -0.864115568230E+03   -0.43199E+00   -0.84427E+00   800   0.182E+00    0.107E+01
DAV:   6    -0.863746894733E+03    0.36867E+00   -0.16092E+01   952   0.179E+00    0.454E+00
DAV:   7    -0.863511695884E+03    0.23520E+00   -0.70154E-01   904   0.882E-01    0.162E+00
DAV:   8    -0.863556392089E+03   -0.44696E-01   -0.16177E-01   808   0.334E-01    0.269E+00
DAV:   9    -0.863493526490E+03    0.62866E-01   -0.26165E-01  1000   0.334E-01    0.672E-01
DAV:  10    -0.863496355606E+03   -0.28291E-02   -0.22605E-02   800   0.162E-01    0.551E-01
DAV:  11    -0.863496244993E+03    0.11061E-03   -0.20021E-02   800   0.106E-01    0.459E-01
DAV:  12    -0.863495291504E+03    0.95349E-03   -0.35786E-03   840   0.674E-02    0.226E-01
DAV:  13    -0.863495406978E+03   -0.11547E-03   -0.58786E-04   800   0.301E-02    0.239E-01
DAV:  14    -0.863495162603E+03    0.24438E-03   -0.89597E-04   784   0.420E-02    0.847E-02
DAV:  15    -0.863495296140E+03   -0.13354E-03   -0.45434E-04   800   0.290E-02    0.129E-01
DAV:  16    -0.863495271639E+03    0.24501E-04   -0.25365E-04   928   0.204E-02    0.488E-02
DAV:  17    -0.863495293251E+03   -0.21612E-04   -0.62648E-05   808   0.868E-03    0.131E-02
DAV:  18    -0.863495310666E+03   -0.17415E-04   -0.28055E-05   600   0.400E-03    0.192E-02
DAV:  19    -0.863495329137E+03   -0.18472E-04   -0.11997E-05   632   0.333E-03    0.604E-03
DAV:  20    -0.863495333945E+03   -0.48076E-05   -0.30385E-06   520   0.185E-03    0.106E-02
DAV:  21    -0.863495338364E+03   -0.44187E-05   -0.65088E-07   504   0.169E-03    0.102E-02
DAV:  22    -0.863495340049E+03   -0.16850E-05   -0.18405E-06   536   0.125E-03    0.319E-03
DAV:  23    -0.863495340574E+03   -0.52515E-06   -0.77780E-07   520   0.104E-03
   5 F= -.86349534E+03 E0= -.86349022E+03  d E =-.193524E+00
       N       E                     dE             d eps       ncg     rms          rms(c)
DAV:   1    -0.864592680287E+03   -0.10973E+01   -0.27064E+02   704   0.238E+01    0.988E+00
DAV:   2    -0.866926527286E+03   -0.23338E+01   -0.38659E+01   824   0.574E+00    0.911E+00
DAV:   3    -0.865357979610E+03    0.15685E+01   -0.21374E+00   936   0.293E+00    0.525E+00
DAV:   4    -0.865676082206E+03   -0.31810E+00   -0.82946E+00   800   0.248E+00    0.865E+00
DAV:   5    -0.865219082307E+03    0.45700E+00   -0.14902E+00   840   0.937E-01    0.322E+00
DAV:   6    -0.865308461411E+03   -0.89379E-01   -0.22527E+00   832   0.934E-01    0.398E+00
DAV:   7    -0.865219793439E+03    0.88668E-01   -0.11172E+00   936   0.737E-01    0.217E+00
DAV:   8    -0.865204271580E+03    0.15522E-01   -0.68376E-02   800   0.381E-01    0.966E-01
DAV:   9    -0.865202025213E+03    0.22464E-02   -0.21287E-02   856   0.171E-01    0.333E-01
DAV:  10    -0.865202704961E+03   -0.67975E-03   -0.37645E-03   784   0.689E-02    0.186E-01
DAV:  11    -0.865203815358E+03   -0.11104E-02   -0.81521E-03   992   0.800E-02    0.558E-01
DAV:  12    -0.865202314666E+03    0.15007E-02   -0.14890E-02   952   0.882E-02    0.166E-01
DAV:  13    -0.865202571533E+03   -0.25687E-03   -0.38363E-04   792   0.398E-02    0.141E-01
DAV:  14    -0.865202547518E+03    0.24015E-04   -0.53501E-05   808   0.129E-02    0.111E-01
DAV:  15    -0.865202546981E+03    0.53662E-06   -0.29399E-04   824   0.248E-02    0.183E-02
DAV:  16    -0.865202594618E+03   -0.47637E-04   -0.56270E-05   800   0.186E-02    0.162E-02
DAV:  17    -0.865202609128E+03   -0.14510E-04   -0.42261E-05   808   0.839E-03    0.435E-02
DAV:  18    -0.865202605998E+03    0.31301E-05   -0.25804E-05   536   0.345E-03    0.153E-02
DAV:  19    -0.865202614085E+03   -0.80871E-05   -0.13001E-05   688   0.380E-03    0.636E-03
DAV:  20    -0.865202617054E+03   -0.29692E-05   -0.51288E-06   528   0.240E-03    0.829E-03
DAV:  21    -0.865202618340E+03   -0.12863E-05   -0.38930E-06   512   0.143E-03    0.343E-03
DAV:  22    -0.865202618918E+03   -0.57753E-06   -0.25789E-07   520   0.790E-04
   6 F= -.86520262E+03 E0= -.86518762E+03  d E =-.190080E+01
       N       E                     dE             d eps       ncg     rms          rms(c)
DAV:   1    -0.864970862663E+03    0.23176E+00   -0.50179E+02   720   0.366E+01    0.745E+00
DAV:   2    -0.866392952924E+03   -0.14221E+01   -0.19778E+01   808   0.567E+00    0.668E+00
DAV:   3    -0.866225801364E+03    0.16715E+00   -0.69222E+00   968   0.180E+00    0.391E+00
DAV:   4    -0.866039740525E+03    0.18606E+00   -0.55050E-01   880   0.106E+00    0.202E+00
DAV:   5    -0.866046004919E+03   -0.62644E-02   -0.62523E-01   800   0.105E+00    0.212E+00
DAV:   6    -0.866012373071E+03    0.33632E-01   -0.45938E-01   936   0.609E-01    0.505E-01
DAV:   7    -0.866013455303E+03   -0.10822E-02   -0.45364E-02   784   0.250E-01    0.284E-01
DAV:   8    -0.866012993683E+03    0.46162E-03   -0.11758E-02   808   0.112E-01    0.152E-01
DAV:   9    -0.866012886208E+03    0.10748E-03   -0.16985E-03   800   0.834E-02    0.416E-02
DAV:  10    -0.866012972870E+03   -0.86662E-04   -0.23351E-04   816   0.493E-02    0.399E-02
DAV:  11    -0.866013047390E+03   -0.74520E-04   -0.13896E-04   816   0.408E-02    0.230E-02
DAV:  12    -0.866013144051E+03   -0.96661E-04   -0.85506E-05   952   0.397E-02    0.113E-02
DAV:  13    -0.866013211331E+03   -0.67280E-04   -0.54217E-05   824   0.292E-02    0.112E-02
DAV:  14    -0.866013240460E+03   -0.29129E-04   -0.36979E-05   800   0.148E-02    0.101E-02
DAV:  15    -0.866013242707E+03   -0.22465E-05   -0.27277E-06   632   0.300E-03    0.960E-03
DAV:  16    -0.866013243827E+03   -0.11196E-05   -0.11526E-07   504   0.779E-04    0.905E-03
DAV:  17    -0.866013256438E+03   -0.12611E-04   -0.57022E-06   712   0.438E-03    0.322E-03
DAV:  18    -0.866013259118E+03   -0.26802E-05   -0.51426E-07   512   0.202E-03    0.295E-03
DAV:  19    -0.866013262027E+03   -0.29086E-05   -0.98131E-07   488   0.271E-03    0.176E-03
DAV:  20    -0.866013262673E+03   -0.64653E-06   -0.22005E-07   512   0.108E-03
   7 F= -.86601326E+03 E0= -.86601326E+03  d E =-.810644E+00
       N       E                     dE             d eps       ncg     rms          rms(c)
DAV:   1    -0.866315876295E+03   -0.30261E+00   -0.75063E+01   720   0.138E+01    0.267E+00
DAV:   2    -0.866540967248E+03   -0.22509E+00   -0.29230E+00   800   0.201E+00    0.278E+00
DAV:   3    -0.866463621547E+03    0.77346E-01   -0.67011E-01   928   0.794E-01    0.122E+00
DAV:   4    -0.866452905773E+03    0.10716E-01   -0.11478E-01   808   0.369E-01    0.655E-01
DAV:   5    -0.866449769177E+03    0.31366E-02   -0.34925E-02   792   0.293E-01    0.242E-01
DAV:   6    -0.866449707289E+03    0.61888E-04   -0.64603E-03   840   0.148E-01    0.109E-01
DAV:   7    -0.866449742738E+03   -0.35449E-04   -0.10043E-03   800   0.635E-02    0.623E-02
DAV:   8    -0.866449717551E+03    0.25187E-04   -0.11774E-04   784   0.286E-02    0.388E-02
DAV:   9    -0.866449712882E+03    0.46697E-05   -0.61255E-05   784   0.302E-02    0.132E-02
DAV:  10    -0.866449720368E+03   -0.74864E-05   -0.42634E-05   872   0.210E-02    0.805E-03
DAV:  11    -0.866449736488E+03   -0.16120E-04   -0.19851E-05   824   0.188E-02    0.715E-03
DAV:  12    -0.866449744341E+03   -0.78524E-05   -0.11492E-05   808   0.107E-02    0.636E-03
DAV:  13    -0.866449749249E+03   -0.49078E-05   -0.17463E-06   520   0.575E-03    0.345E-03
DAV:  14    -0.866449753154E+03   -0.39054E-05   -0.23259E-06   584   0.558E-03    0.138E-03
DAV:  15    -0.866449754205E+03   -0.10513E-05   -0.14432E-06   520   0.272E-03    0.194E-03
DAV:  16    -0.866449754525E+03   -0.31979E-06   -0.22353E-07   504   0.108E-03
   8 F= -.86644975E+03 E0= -.86644975E+03  d E =-.124714E+01
       N       E                     dE             d eps       ncg     rms          rms(c)
DAV:   1    -0.866948263203E+03   -0.49851E+00   -0.19866E+02   704   0.238E+01    0.530E+00
DAV:   2    -0.867390262128E+03   -0.44200E+00   -0.63220E+00   808   0.410E+00    0.334E+00
DAV:   3    -0.867333265195E+03    0.56997E-01   -0.19988E+00   840   0.130E+00    0.226E+00
DAV:   4    -0.867250141233E+03    0.83124E-01   -0.23600E-01   816   0.800E-01    0.969E-01
DAV:   5    -0.867241416728E+03    0.87245E-02   -0.16650E-01   800   0.706E-01    0.736E-01
DAV:   6    -0.867236419457E+03    0.49973E-02   -0.55814E-02   848   0.352E-01    0.281E-01
DAV:   7    -0.867236124373E+03    0.29508E-03   -0.66649E-03   792   0.154E-01    0.136E-01
DAV:   8    -0.867236140015E+03   -0.15643E-04   -0.18940E-03   888   0.880E-02    0.137E-01
DAV:   9    -0.867236015853E+03    0.12416E-03   -0.25342E-03   904   0.828E-02    0.458E-02
DAV:  10    -0.867236190826E+03   -0.17497E-03   -0.48455E-04   824   0.426E-02    0.316E-02
DAV:  11    -0.867236261215E+03   -0.70389E-04   -0.91374E-05   808   0.190E-02    0.207E-02
DAV:  12    -0.867236389137E+03   -0.12792E-03   -0.30079E-05   776   0.172E-02    0.962E-03
DAV:  13    -0.867236474414E+03   -0.85277E-04   -0.46320E-05   792   0.172E-02    0.118E-02
DAV:  14    -0.867236507417E+03   -0.33003E-04   -0.32048E-05   792   0.119E-02    0.507E-03
DAV:  15    -0.867236519772E+03   -0.12354E-04   -0.45562E-06   720   0.441E-03    0.230E-03
DAV:  16    -0.867236535865E+03   -0.16093E-04   -0.20920E-06   568   0.228E-03    0.162E-03
DAV:  17    -0.867236542005E+03   -0.61397E-05   -0.79990E-07   520   0.176E-03    0.166E-03
DAV:  18    -0.867236544457E+03   -0.24521E-05   -0.51226E-07   504   0.126E-03    0.123E-03
DAV:  19    -0.867236544918E+03   -0.46130E-06   -0.19871E-07   520   0.106E-03
   9 F= -.86723654E+03 E0= -.86723654E+03  d E =-.786790E+00
       N       E                     dE             d eps       ncg     rms          rms(c)
DAV:   1    -0.867262570543E+03   -0.26026E-01   -0.49696E+00   704   0.388E+00    0.823E-01
DAV:   2    -0.867273410381E+03   -0.10840E-01   -0.18366E-01   808   0.620E-01    0.665E-01
DAV:   3    -0.867268705529E+03    0.47049E-02   -0.56203E-02   816   0.238E-01    0.340E-01
DAV:   4    -0.867267252140E+03    0.14534E-02   -0.77838E-03   792   0.121E-01    0.144E-01
DAV:   5    -0.867267051033E+03    0.20111E-03   -0.19660E-03   808   0.882E-02    0.553E-02
DAV:   6    -0.867267056510E+03   -0.54771E-05   -0.45365E-04   808   0.455E-02    0.462E-02
DAV:   7    -0.867267058084E+03   -0.15736E-05   -0.55342E-05   800   0.150E-02    0.283E-02
DAV:   8    -0.867267066247E+03   -0.81637E-05   -0.18880E-05   776   0.103E-02    0.122E-02
DAV:   9    -0.867267081708E+03   -0.15461E-04   -0.99794E-06   792   0.850E-03    0.408E-03
DAV:  10    -0.867267092023E+03   -0.10315E-04   -0.36369E-06   696   0.480E-03    0.333E-03
DAV:  11    -0.867267099178E+03   -0.71556E-05   -0.82134E-07   520   0.248E-03    0.176E-03
DAV:  12    -0.867267106435E+03   -0.72567E-05   -0.12760E-06   552   0.337E-03    0.160E-03
DAV:  13    -0.867267108638E+03   -0.22030E-05   -0.80779E-07   520   0.229E-03    0.767E-04
DAV:  14    -0.867267109316E+03   -0.67802E-06   -0.23141E-07   520   0.981E-04
  10 F= -.86726711E+03 E0= -.86726711E+03  d E =-.817355E+00
       N       E                     dE             d eps       ncg     rms          rms(c)
DAV:   1    -0.867846828004E+03   -0.57972E+00   -0.11854E+02   704   0.189E+01    0.344E+00
DAV:   2    -0.868107327519E+03   -0.26050E+00   -0.32965E+00   800   0.262E+00    0.201E+00
DAV:   3    -0.868061449613E+03    0.45878E-01   -0.40622E-01   928   0.846E-01    0.125E+00
DAV:   4    -0.868045967512E+03    0.15482E-01   -0.13427E-01   816   0.416E-01    0.717E-01
DAV:   5    -0.868041260573E+03    0.47069E-02   -0.45481E-02   792   0.361E-01    0.174E-01
DAV:   6    -0.868041487075E+03   -0.22650E-03   -0.60508E-03   808   0.152E-01    0.143E-01
DAV:   7    -0.868041479306E+03    0.77693E-05   -0.10596E-03   800   0.664E-02    0.888E-02
DAV:   8    -0.868041473020E+03    0.62856E-05   -0.25877E-04   824   0.355E-02    0.564E-02
DAV:   9    -0.868041529607E+03   -0.56587E-04   -0.89932E-05   776   0.233E-02    0.163E-02
DAV:  10    -0.868041563287E+03   -0.33680E-04   -0.33919E-05   808   0.134E-02    0.939E-03
DAV:  11    -0.868041615467E+03   -0.52180E-04   -0.12120E-05   768   0.100E-02    0.681E-03
DAV:  12    -0.868041661913E+03   -0.46446E-04   -0.10173E-05   744   0.954E-03    0.555E-03
DAV:  13    -0.868041693556E+03   -0.31643E-04   -0.62944E-06   712   0.730E-03    0.360E-03
DAV:  14    -0.868041704397E+03   -0.10841E-04   -0.20568E-06   600   0.288E-03    0.242E-03
DAV:  15    -0.868041708884E+03   -0.44871E-05   -0.47280E-07   512   0.115E-03    0.139E-03
DAV:  16    -0.868041712139E+03   -0.32557E-05   -0.32985E-07   512   0.112E-03    0.479E-04
DAV:  17    -0.868041713266E+03   -0.11270E-05   -0.18072E-07   512   0.748E-04    0.399E-04
DAV:  18    -0.868041713557E+03   -0.29061E-06   -0.61241E-08   520   0.436E-04
  11 F= -.86804171E+03 E0= -.86804171E+03  d E =-.774604E+00
       N       E                     dE             d eps       ncg     rms          rms(c)
DAV:   1    -0.868104367733E+03   -0.62654E-01   -0.33983E+01   704   0.101E+01    0.178E+00
DAV:   2    -0.868172239752E+03   -0.67872E-01   -0.90471E-01   800   0.137E+00    0.114E+00
DAV:   3    -0.868158189320E+03    0.14050E-01   -0.14619E-01   904   0.457E-01    0.694E-01
DAV:   4    -0.868152752672E+03    0.54366E-02   -0.38335E-02   808   0.234E-01    0.348E-01
DAV:   5    -0.868151797765E+03    0.95491E-03   -0.11508E-02   792   0.189E-01    0.838E-02
DAV:   6    -0.868151868312E+03   -0.70547E-04   -0.15631E-03   808   0.762E-02    0.783E-02
DAV:   7    -0.868151864192E+03    0.41201E-05   -0.20221E-04   808   0.297E-02    0.460E-02
DAV:   8    -0.868151864125E+03    0.66597E-07   -0.51619E-05   776   0.163E-02    0.250E-02
DAV:   9    -0.868151882274E+03   -0.18149E-04   -0.19634E-05   784   0.117E-02    0.678E-03
DAV:  10    -0.868151895214E+03   -0.12940E-04   -0.80947E-06   808   0.715E-03    0.413E-03
DAV:  11    -0.868151911845E+03   -0.16631E-04   -0.20146E-06   568   0.476E-03    0.324E-03
DAV:  12    -0.868151927590E+03   -0.15745E-04   -0.30233E-06   640   0.556E-03    0.261E-03
DAV:  13    -0.868151935532E+03   -0.79421E-05   -0.25372E-06   648   0.446E-03    0.145E-03
DAV:  14    -0.868151936787E+03   -0.12549E-05   -0.57330E-07   520   0.146E-03    0.160E-03
DAV:  15    -0.868151937418E+03   -0.63113E-06   -0.93416E-08   504   0.602E-04
  12 F= -.86815194E+03 E0= -.86815194E+03  d E =-.884828E+00
       N       E                     dE             d eps       ncg     rms          rms(c)
DAV:   1    -0.868540128188E+03   -0.38819E+00   -0.62988E+01   704   0.146E+01    0.224E+00
DAV:   2    -0.868635968860E+03   -0.95841E-01   -0.13440E+00   808   0.198E+00    0.107E+00
DAV:   3    -0.868620371650E+03    0.15597E-01   -0.41424E-02   832   0.451E-01    0.636E-01
DAV:   4    -0.868614274163E+03    0.60975E-02   -0.30723E-02   808   0.399E-01    0.296E-01
DAV:   5    -0.868613547288E+03    0.72687E-03   -0.12400E-02   920   0.221E-01    0.198E-01
DAV:   6    -0.868613169086E+03    0.37820E-03   -0.32391E-03   792   0.103E-01    0.125E-01
DAV:   7    -0.868613022196E+03    0.14689E-03   -0.34906E-04   792   0.518E-02    0.676E-02
DAV:   8    -0.868612942575E+03    0.79621E-04   -0.12528E-04   888   0.517E-02    0.298E-02
DAV:   9    -0.868612953158E+03   -0.10583E-04   -0.16343E-04   848   0.549E-02    0.154E-02
DAV:  10    -0.868612989490E+03   -0.36332E-04   -0.10383E-04   816   0.269E-02    0.167E-02
DAV:  11    -0.868613008872E+03   -0.19382E-04   -0.12824E-05   776   0.113E-02    0.101E-02
DAV:  12    -0.868613029389E+03   -0.20517E-04   -0.90724E-06   744   0.154E-02    0.484E-03
DAV:  13    -0.868613038643E+03   -0.92546E-05   -0.10765E-05   768   0.805E-03    0.290E-03
DAV:  14    -0.868613041571E+03   -0.29273E-05   -0.11771E-06   512   0.247E-03    0.227E-03
DAV:  15    -0.868613044262E+03   -0.26915E-05   -0.68039E-07   496   0.191E-03    0.676E-04
DAV:  16    -0.868613045090E+03   -0.82789E-06   -0.25001E-07   520   0.110E-03
  13 F= -.86861305E+03 E0= -.86861303E+03  d E =-.461108E+00
       N       E                     dE             d eps       ncg     rms          rms(c)
DAV:   1    -0.868647274645E+03   -0.34230E-01   -0.11600E+01   720   0.630E+00    0.974E-01
DAV:   2    -0.868664495776E+03   -0.17221E-01   -0.24605E-01   808   0.855E-01    0.462E-01
DAV:   3    -0.868661605848E+03    0.28899E-02   -0.77719E-03   832   0.196E-01    0.270E-01
DAV:   4    -0.868660401402E+03    0.12044E-02   -0.50046E-03   800   0.175E-01    0.881E-02
DAV:   5    -0.868660368376E+03    0.33025E-04   -0.13580E-03   832   0.907E-02    0.755E-02
DAV:   6    -0.868660332506E+03    0.35870E-04   -0.44871E-04   800   0.382E-02    0.536E-02
DAV:   7    -0.868660309682E+03    0.22824E-04   -0.60637E-05   848   0.202E-02    0.332E-02
DAV:   8    -0.868660294544E+03    0.15138E-04   -0.29224E-05   848   0.207E-02    0.125E-02
DAV:   9    -0.868660298767E+03   -0.42230E-05   -0.26682E-05   864   0.228E-02    0.664E-03
DAV:  10    -0.868660308156E+03   -0.93897E-05   -0.18448E-05   800   0.136E-02    0.594E-03
DAV:  11    -0.868660312406E+03   -0.42493E-05   -0.41003E-06   728   0.567E-03    0.431E-03
DAV:  12    -0.868660314291E+03   -0.18851E-05   -0.54227E-07   520   0.331E-03    0.277E-03
DAV:  13    -0.868660316602E+03   -0.23115E-05   -0.82829E-07   488   0.323E-03    0.132E-03
DAV:  14    -0.868660316933E+03   -0.33067E-06   -0.46238E-07   520   0.152E-03
  14 F= -.86866032E+03 E0= -.86866029E+03  d E =-.508380E+00
       N       E                     dE             d eps       ncg     rms          rms(c)
DAV:   1    -0.868962240999E+03   -0.30192E+00   -0.70086E+01   704   0.154E+01    0.252E+00
DAV:   2    -0.869064037153E+03   -0.10180E+00   -0.14787E+00   808   0.207E+00    0.118E+00
DAV:   3    -0.869047531971E+03    0.16505E-01   -0.54187E-02   824   0.508E-01    0.705E-01
DAV:   4    -0.869042767449E+03    0.47645E-02   -0.27333E-02   872   0.345E-01    0.425E-01
DAV:   5    -0.869041187871E+03    0.15796E-02   -0.11827E-02   800   0.207E-01    0.135E-01
DAV:   6    -0.869041296359E+03   -0.10849E-03   -0.23661E-03   808   0.105E-01    0.976E-02
DAV:   7    -0.869041301617E+03   -0.52579E-05   -0.44121E-04   800   0.447E-02    0.522E-02
DAV:   8    -0.869041303922E+03   -0.23047E-05   -0.89215E-05   864   0.273E-02    0.279E-02
DAV:   9    -0.869041328033E+03   -0.24112E-04   -0.38421E-05   784   0.187E-02    0.851E-03
DAV:  10    -0.869041346251E+03   -0.18218E-04   -0.13401E-05   848   0.132E-02    0.681E-03
DAV:  11    -0.869041364207E+03   -0.17956E-04   -0.62177E-06   712   0.127E-02    0.423E-03
DAV:  12    -0.869041373030E+03   -0.88229E-05   -0.62811E-06   784   0.102E-02    0.363E-03
DAV:  13    -0.869041375781E+03   -0.27511E-05   -0.44155E-06   744   0.568E-03    0.327E-03
DAV:  14    -0.869041376349E+03   -0.56716E-06   -0.42429E-07   520   0.160E-03
  15 F= -.86904138E+03 E0= -.86904137E+03  d E =-.381059E+00
       N       E                     dE             d eps       ncg     rms          rms(c)
DAV:   1    -0.869066630282E+03   -0.25255E-01   -0.13330E+01   704   0.681E+00    0.110E+00
DAV:   2    -0.869085482654E+03   -0.18852E-01   -0.27172E-01   808   0.899E-01    0.522E-01
DAV:   3    -0.869082218477E+03    0.32642E-02   -0.92875E-03   840   0.227E-01    0.305E-01
DAV:   4    -0.869081226102E+03    0.99237E-03   -0.45251E-03   824   0.145E-01    0.174E-01
DAV:   5    -0.869081003086E+03    0.22302E-03   -0.19040E-03   800   0.887E-02    0.573E-02
DAV:   6    -0.869081025718E+03   -0.22633E-04   -0.40922E-04   808   0.441E-02    0.425E-02
DAV:   7    -0.869081028437E+03   -0.27185E-05   -0.79218E-05   792   0.189E-02    0.219E-02
DAV:   8    -0.869081029872E+03   -0.14348E-05   -0.14816E-05   856   0.113E-02    0.123E-02
DAV:   9    -0.869081035472E+03   -0.55999E-05   -0.70142E-06   784   0.775E-03    0.373E-03
DAV:  10    -0.869081039056E+03   -0.35842E-05   -0.19406E-06   576   0.540E-03    0.261E-03
DAV:  11    -0.869081042680E+03   -0.36243E-05   -0.15233E-06   544   0.585E-03    0.184E-03
DAV:  12    -0.869081044310E+03   -0.16294E-05   -0.15563E-06   520   0.427E-03    0.171E-03
DAV:  13    -0.869081044802E+03   -0.49263E-06   -0.66447E-07   520   0.225E-03
  16 F= -.86908104E+03 E0= -.86908104E+03  d E =-.420728E+00
       N       E                     dE             d eps       ncg     rms          rms(c)
DAV:   1    -0.869251558367E+03   -0.17051E+00   -0.35019E+01   704   0.110E+01    0.178E+00
DAV:   2    -0.869309719550E+03   -0.58161E-01   -0.75844E-01   800   0.151E+00    0.866E-01
DAV:   3    -0.869300393089E+03    0.93265E-02   -0.24466E-02   816   0.359E-01    0.534E-01
DAV:   4    -0.869296854181E+03    0.35389E-02   -0.12368E-02   800   0.260E-01    0.229E-01
DAV:   5    -0.869296468062E+03    0.38612E-03   -0.45657E-03   840   0.152E-01    0.111E-01
DAV:   6    -0.869296405975E+03    0.62087E-04   -0.15469E-03   816   0.982E-02    0.727E-02
DAV:   7    -0.869296387908E+03    0.18067E-04   -0.22112E-04   800   0.312E-02    0.498E-02
DAV:   8    -0.869296367318E+03    0.20590E-04   -0.74996E-05   776   0.224E-02    0.202E-02
DAV:   9    -0.869296373207E+03   -0.58893E-05   -0.32079E-05   864   0.209E-02    0.782E-03
DAV:  10    -0.869296388792E+03   -0.15585E-04   -0.18673E-05   896   0.153E-02    0.535E-03
DAV:  11    -0.869296401795E+03   -0.13003E-04   -0.46022E-06   728   0.767E-03    0.356E-03
DAV:  12    -0.869296411757E+03   -0.99621E-05   -0.20063E-06   592   0.723E-03    0.257E-03
DAV:  13    -0.869296416063E+03   -0.43060E-05   -0.25860E-06   592   0.409E-03    0.279E-03
DAV:  14    -0.869296418037E+03   -0.19737E-05   -0.54513E-07   504   0.190E-03    0.166E-03
DAV:  15    -0.869296419500E+03   -0.14629E-05   -0.31331E-07   512   0.123E-03    0.781E-04
DAV:  16    -0.869296419981E+03   -0.48093E-06   -0.12004E-07   512   0.837E-04
  17 F= -.86929642E+03 E0= -.86929642E+03  d E =-.215375E+00
       N       E                     dE             d eps       ncg     rms          rms(c)
DAV:   1    -0.869311094189E+03   -0.14675E-01   -0.79566E+00   704   0.526E+00    0.836E-01
DAV:   2    -0.869324102121E+03   -0.13008E-01   -0.16883E-01   800   0.706E-01    0.401E-01
DAV:   3    -0.869322075064E+03    0.20271E-02   -0.48519E-03   824   0.159E-01    0.244E-01
DAV:   4    -0.869321309444E+03    0.76562E-03   -0.27552E-03   808   0.127E-01    0.101E-01
DAV:   5    -0.869321231672E+03    0.77772E-04   -0.97149E-04   832   0.696E-02    0.525E-02
DAV:   6    -0.869321217146E+03    0.14526E-04   -0.32568E-04   808   0.438E-02    0.341E-02
DAV:   7    -0.869321213198E+03    0.39489E-05   -0.42313E-05   808   0.141E-02    0.226E-02
DAV:   8    -0.869321209313E+03    0.38842E-05   -0.16422E-05   760   0.111E-02    0.777E-03
DAV:   9    -0.869321211412E+03   -0.20985E-05   -0.69908E-06   800   0.979E-03    0.367E-03
DAV:  10    -0.869321215854E+03   -0.44425E-05   -0.43525E-06   728   0.764E-03    0.258E-03
DAV:  11    -0.869321219153E+03   -0.32981E-05   -0.10784E-06   520   0.361E-03    0.168E-03
DAV:  12    -0.869321221303E+03   -0.21507E-05   -0.41571E-07   504   0.310E-03    0.101E-03
DAV:  13    -0.869321222256E+03   -0.95263E-06   -0.56902E-07   520   0.203E-03
  18 F= -.86932122E+03 E0= -.86932122E+03  d E =-.240177E+00
       N       E                     dE             d eps       ncg     rms          rms(c)
DAV:   1    -0.869498584303E+03   -0.17736E+00   -0.26109E+01   704   0.950E+00    0.140E+00
DAV:   2    -0.869539355362E+03   -0.40771E-01   -0.52933E-01   808   0.125E+00    0.670E-01
DAV:   3    -0.869533352334E+03    0.60030E-02   -0.13518E-02   816   0.284E-01    0.392E-01
DAV:   4    -0.869531187178E+03    0.21652E-02   -0.88331E-03   800   0.208E-01    0.156E-01
DAV:   5    -0.869531183310E+03    0.38681E-05   -0.24578E-03   808   0.956E-02    0.844E-02
DAV:   6    -0.869531167660E+03    0.15650E-04   -0.48892E-04   808   0.524E-02    0.484E-02
DAV:   7    -0.869531164718E+03    0.29427E-05   -0.74859E-05   808   0.195E-02    0.253E-02
DAV:   8    -0.869531164318E+03    0.39978E-06   -0.18363E-05   784   0.122E-02    0.109E-02
DAV:   9    -0.869531167176E+03   -0.28579E-05   -0.84590E-06   840   0.106E-02    0.352E-03
DAV:  10    -0.869531171478E+03   -0.43027E-05   -0.47064E-06   792   0.706E-03    0.362E-03
DAV:  11    -0.869531174019E+03   -0.25410E-05   -0.76915E-07   512   0.340E-03    0.243E-03
DAV:  12    -0.869531176555E+03   -0.25356E-05   -0.65662E-07   496   0.385E-03    0.823E-04
DAV:  13    -0.869531177683E+03   -0.11281E-05   -0.89161E-07   520   0.266E-03    0.971E-04
DAV:  14    -0.869531178091E+03   -0.40806E-06   -0.27489E-07   520   0.125E-03
  19 F= -.86953118E+03 E0= -.86953118E+03  d E =-.209956E+00
       N       E                     dE             d eps       ncg     rms          rms(c)
DAV:   1    -0.869529263791E+03    0.19139E-02   -0.15135E+02   704   0.230E+01    0.339E+00
DAV:   2    -0.869795006720E+03   -0.26574E+00   -0.33799E+00   816   0.309E+00    0.163E+00
DAV:   3    -0.869758576246E+03    0.36430E-01   -0.84956E-02   824   0.683E-01    0.954E-01
DAV:   4    -0.869745653102E+03    0.12923E-01   -0.69498E-02   808   0.558E-01    0.304E-01
DAV:   5    -0.869746103830E+03   -0.45073E-03   -0.11708E-02   792   0.225E-01    0.209E-01
DAV:   6    -0.869746126363E+03   -0.22533E-04   -0.21463E-03   808   0.103E-01    0.125E-01
DAV:   7    -0.869746051457E+03    0.74906E-04   -0.29493E-04   808   0.438E-02    0.627E-02
DAV:   8    -0.869746056683E+03   -0.52257E-05   -0.12302E-04   792   0.337E-02    0.203E-02
DAV:   9    -0.869746068604E+03   -0.11921E-04   -0.74891E-05   888   0.261E-02    0.110E-02
DAV:  10    -0.869746081911E+03   -0.13307E-04   -0.18378E-05   776   0.102E-02    0.105E-02
DAV:  11    -0.869746096283E+03   -0.14373E-04   -0.29746E-06   640   0.935E-03    0.473E-03
DAV:  12    -0.869746110724E+03   -0.14440E-04   -0.89925E-06   736   0.127E-02    0.376E-03
DAV:  13    -0.869746117375E+03   -0.66515E-05   -0.80906E-06   744   0.747E-03    0.313E-03
DAV:  14    -0.869746117919E+03   -0.54363E-06   -0.10036E-06   536   0.188E-03
  20 F= -.86974612E+03 E0= -.86974612E+03  d E =-.424896E+00
       N       E                     dE             d eps       ncg     rms          rms(c)
DAV:   1    -0.869936718271E+03   -0.19060E+00   -0.39802E+01   704   0.117E+01    0.161E+00
DAV:   2    -0.870004104489E+03   -0.67386E-01   -0.86511E-01   800   0.156E+00    0.832E-01
DAV:   3    -0.869994661512E+03    0.94430E-02   -0.18527E-02   816   0.351E-01    0.496E-01
DAV:   4    -0.869990960791E+03    0.37007E-02   -0.19816E-02   800   0.310E-01    0.142E-01
DAV:   5    -0.869990963906E+03   -0.31147E-05   -0.36489E-03   816   0.137E-01    0.116E-01
DAV:   6    -0.869990903338E+03    0.60569E-04   -0.60660E-04   808   0.543E-02    0.738E-02
DAV:   7    -0.869990831943E+03    0.71394E-04   -0.91012E-05   808   0.285E-02    0.361E-02
DAV:   8    -0.869990803369E+03    0.28575E-04   -0.55805E-05   888   0.349E-02    0.116E-02
DAV:   9    -0.869990807693E+03   -0.43244E-05   -0.59686E-05   856   0.231E-02    0.104E-02
DAV:  10    -0.869990817307E+03   -0.96139E-05   -0.12825E-05   808   0.118E-02    0.822E-03
DAV:  11    -0.869990826843E+03   -0.95358E-05   -0.47512E-06   704   0.132E-02    0.413E-03
DAV:  12    -0.869990835056E+03   -0.82133E-05   -0.85835E-06   752   0.105E-02    0.265E-03
DAV:  13    -0.869990837192E+03   -0.21354E-05   -0.46341E-06   768   0.446E-03    0.365E-03
DAV:  14    -0.869990837595E+03   -0.40316E-06   -0.25212E-07   536   0.984E-04
  21 F= -.86999084E+03 E0= -.86999084E+03  d E =-.244720E+00
       N       E                     dE             d eps       ncg     rms          rms(c)
DAV:   1    -0.869989683858E+03    0.11533E-02   -0.86210E+01   704   0.171E+01    0.236E+00
DAV:   2    -0.870145888681E+03   -0.15620E+00   -0.19709E+00   808   0.234E+00    0.123E+00
DAV:   3    -0.870125325305E+03    0.20563E-01   -0.41330E-02   824   0.514E-01    0.741E-01
DAV:   4    -0.870117240058E+03    0.80852E-02   -0.46951E-02   800   0.483E-01    0.222E-01
DAV:   5    -0.870117066748E+03    0.17331E-03   -0.85093E-03   832   0.216E-01    0.171E-01
DAV:   6    -0.870116962299E+03    0.10445E-03   -0.14260E-03   808   0.804E-02    0.107E-01
DAV:   7    -0.870116807915E+03    0.15438E-03   -0.22189E-04   800   0.442E-02    0.504E-02
DAV:   8    -0.870116758026E+03    0.49889E-04   -0.11983E-04   904   0.521E-02    0.154E-02
DAV:   9    -0.870116777563E+03   -0.19536E-04   -0.11998E-04   848   0.351E-02    0.144E-02
DAV:  10    -0.870116806864E+03   -0.29301E-04   -0.30516E-05   848   0.177E-02    0.116E-02
DAV:  11    -0.870116830709E+03   -0.23845E-04   -0.80462E-06   784   0.157E-02    0.623E-03
DAV:  12    -0.870116851412E+03   -0.20703E-04   -0.10805E-05   760   0.132E-02    0.297E-03
DAV:  13    -0.870116856977E+03   -0.55654E-05   -0.10287E-05   808   0.671E-03    0.587E-03
DAV:  14    -0.870116858242E+03   -0.12650E-05   -0.43222E-07   512   0.131E-03    0.492E-03
DAV:  15    -0.870116860658E+03   -0.24163E-05   -0.44282E-07   504   0.142E-03    0.299E-03
DAV:  16    -0.870116862142E+03   -0.14838E-05   -0.52765E-07   512   0.148E-03    0.178E-03
DAV:  17    -0.870116862489E+03   -0.34666E-06   -0.79665E-08   520   0.752E-04
  22 F= -.87011686E+03 E0= -.87011686E+03  d E =-.370745E+00
       N       E                     dE             d eps       ncg     rms          rms(c)
DAV:   1    -0.870283126906E+03   -0.16626E+00   -0.40277E+01   704   0.116E+01    0.144E+00
DAV:   2    -0.870353959549E+03   -0.70833E-01   -0.87706E-01   800   0.155E+00    0.813E-01
DAV:   3    -0.870346502225E+03    0.74573E-02   -0.17199E-02   816   0.303E-01    0.505E-01
DAV:   4    -0.870343451363E+03    0.30509E-02   -0.24088E-02   800   0.347E-01    0.182E-01
DAV:   5    -0.870343206015E+03    0.24535E-03   -0.44762E-03   864   0.156E-01    0.116E-01
DAV:   6    -0.870343211895E+03   -0.58804E-05   -0.95115E-04   792   0.597E-02    0.673E-02
DAV:   7    -0.870343207247E+03    0.46477E-05   -0.12095E-04   808   0.272E-02    0.283E-02
DAV:   8    -0.870343229264E+03   -0.22017E-04   -0.31632E-05   880   0.221E-02    0.889E-03
DAV:   9    -0.870343251497E+03   -0.22233E-04   -0.18683E-05   880   0.152E-02    0.563E-03
DAV:  10    -0.870343266285E+03   -0.14787E-04   -0.61818E-06   744   0.720E-03    0.497E-03
DAV:  11    -0.870343275683E+03   -0.93989E-05   -0.85286E-07   552   0.470E-03    0.302E-03
DAV:  12    -0.870343285587E+03   -0.99036E-05   -0.28382E-06   624   0.764E-03    0.184E-03
DAV:  13    -0.870343287398E+03   -0.18107E-05   -0.31042E-06   680   0.416E-03    0.173E-03
DAV:  14    -0.870343288122E+03   -0.72439E-06   -0.29975E-07   504   0.119E-03
  23 F= -.87034329E+03 E0= -.87034329E+03  d E =-.226426E+00
       N       E                     dE             d eps       ncg     rms          rms(c)
DAV:   1    -0.870139911146E+03    0.20338E+00   -0.20652E+02   704   0.264E+01    0.326E+00
DAV:   2    -0.870632789295E+03   -0.49288E+00   -0.57219E+00   800   0.374E+00    0.195E+00
DAV:   3    -0.870589605182E+03    0.43184E-01   -0.10213E-01   824   0.720E-01    0.126E+00
DAV:   4    -0.870572400136E+03    0.17205E-01   -0.16631E-01   792   0.854E-01    0.514E-01
DAV:   5    -0.870569238295E+03    0.31618E-02   -0.25864E-02   872   0.387E-01    0.291E-01
DAV:   6    -0.870569332954E+03   -0.94659E-04   -0.81385E-03   800   0.172E-01    0.141E-01
DAV:   7    -0.870569353399E+03   -0.20445E-04   -0.74124E-04   808   0.665E-02    0.689E-02
DAV:   8    -0.870569460460E+03   -0.10706E-03   -0.17105E-04   872   0.517E-02    0.228E-02
DAV:   9    -0.870569559336E+03   -0.98877E-04   -0.10479E-04   816   0.320E-02    0.153E-02
DAV:  10    -0.870569626703E+03   -0.67366E-04   -0.28212E-05   840   0.162E-02    0.114E-02
DAV:  11    -0.870569692193E+03   -0.65490E-04   -0.75707E-06   752   0.142E-02    0.609E-03
DAV:  12    -0.870569766415E+03   -0.74223E-04   -0.19053E-05   728   0.191E-02    0.610E-03
DAV:  13    -0.870569781723E+03   -0.15308E-04   -0.20863E-05   792   0.102E-02    0.591E-03
DAV:  14    -0.870569785404E+03   -0.36810E-05   -0.13151E-06   536   0.276E-03    0.520E-03
DAV:  15    -0.870569788656E+03   -0.32526E-05   -0.13496E-06   512   0.254E-03    0.271E-03
DAV:  16    -0.870569790146E+03   -0.14892E-05   -0.35915E-07   512   0.133E-03    0.203E-03
DAV:  17    -0.870569791089E+03   -0.94304E-06   -0.21822E-07   504   0.108E-03
  24 F= -.87056979E+03 E0= -.87056979E+03  d E =-.452929E+00
       N       E                     dE             d eps       ncg     rms          rms(c)
DAV:   1    -0.870748319123E+03   -0.17853E+00   -0.64422E+01   704   0.144E+01    0.199E+00
DAV:   2    -0.870886170795E+03   -0.13785E+00   -0.16747E+00   792   0.200E+00    0.106E+00
DAV:   3    -0.870873832446E+03    0.12338E-01   -0.33306E-02   824   0.392E-01    0.672E-01
DAV:   4    -0.870869129075E+03    0.47034E-02   -0.43535E-02   792   0.447E-01    0.266E-01
DAV:   5    -0.870868303464E+03    0.82561E-03   -0.72027E-03   872   0.199E-01    0.177E-01
DAV:   6    -0.870868229203E+03    0.74261E-04   -0.30701E-03   784   0.113E-01    0.843E-02
DAV:   7    -0.870868275695E+03   -0.46492E-04   -0.23898E-04   816   0.407E-02    0.468E-02
DAV:   8    -0.870868354087E+03   -0.78393E-04   -0.70338E-05   832   0.318E-02    0.162E-02
DAV:   9    -0.870868437952E+03   -0.83864E-04   -0.42267E-05   808   0.221E-02    0.917E-03
DAV:  10    -0.870868499773E+03   -0.61821E-04   -0.12910E-05   808   0.119E-02    0.742E-03
DAV:  11    -0.870868545822E+03   -0.46049E-04   -0.42784E-06   704   0.916E-03    0.443E-03
DAV:  12    -0.870868590892E+03   -0.45070E-04   -0.74028E-06   696   0.107E-02    0.353E-03
DAV:  13    -0.870868600939E+03   -0.10047E-04   -0.73574E-06   784   0.640E-03    0.336E-03
DAV:  14    -0.870868603194E+03   -0.22549E-05   -0.57922E-07   520   0.173E-03    0.312E-03
DAV:  15    -0.870868604888E+03   -0.16936E-05   -0.44399E-07   504   0.139E-03    0.175E-03
DAV:  16    -0.870868605837E+03   -0.94957E-06   -0.20802E-07   520   0.102E-03
  25 F= -.87086861E+03 E0= -.87086861E+03  d E =-.298815E+00
       N       E                     dE             d eps       ncg     rms          rms(c)
DAV:   1    -0.870846700182E+03    0.21905E-01   -0.66125E+01   704   0.145E+01    0.197E+00
DAV:   2    -0.870992401345E+03   -0.14570E+00   -0.17284E+00   792   0.202E+00    0.105E+00
DAV:   3    -0.870979948952E+03    0.12452E-01   -0.31371E-02   824   0.379E-01    0.657E-01
DAV:   4    -0.870974921662E+03    0.50273E-02   -0.34832E-02   800   0.412E-01    0.222E-01
DAV:   5    -0.870974508770E+03    0.41289E-03   -0.66179E-03   840   0.188E-01    0.159E-01
DAV:   6    -0.870974513323E+03   -0.45532E-05   -0.26670E-03   800   0.108E-01    0.831E-02
DAV:   7    -0.870974551182E+03   -0.37859E-04   -0.19829E-04   800   0.393E-02    0.506E-02
DAV:   8    -0.870974636465E+03   -0.85283E-04   -0.88102E-05   800   0.303E-02    0.179E-02
DAV:   9    -0.870974736511E+03   -0.10005E-03   -0.38180E-05   840   0.223E-02    0.958E-03
DAV:  10    -0.870974820772E+03   -0.84261E-04   -0.20740E-05   800   0.158E-02    0.770E-03
DAV:  11    -0.870974870553E+03   -0.49781E-04   -0.10036E-05   800   0.999E-03    0.583E-03
DAV:  12    -0.870974901378E+03   -0.30825E-04   -0.32489E-06   616   0.648E-03    0.283E-03
DAV:  13    -0.870974915057E+03   -0.13679E-04   -0.26699E-06   656   0.453E-03    0.132E-03
DAV:  14    -0.870974919984E+03   -0.49266E-05   -0.78983E-07   512   0.208E-03    0.114E-03
DAV:  15    -0.870974921343E+03   -0.13595E-05   -0.25351E-07   520   0.938E-04    0.840E-04
DAV:  16    -0.870974921821E+03   -0.47805E-06   -0.10148E-07   512   0.740E-04
  26 F= -.87097492E+03 E0= -.87097492E+03  d E =-.405131E+00
       N       E                     dE             d eps       ncg     rms          rms(c)
DAV:   1    -0.871167967016E+03   -0.19305E+00   -0.59246E+01   704   0.140E+01    0.197E+00
DAV:   2    -0.871293918298E+03   -0.12595E+00   -0.15391E+00   800   0.196E+00    0.983E-01
DAV:   3    -0.871280747225E+03    0.13171E-01   -0.33581E-02   824   0.393E-01    0.593E-01
DAV:   4    -0.871276048504E+03    0.46987E-02   -0.26051E-02   808   0.377E-01    0.179E-01
DAV:   5    -0.871276018611E+03    0.29893E-04   -0.57287E-03   840   0.170E-01    0.134E-01
DAV:   6    -0.871276049223E+03   -0.30612E-04   -0.15278E-03   800   0.812E-02    0.754E-02
DAV:   7    -0.871276056588E+03   -0.73655E-05   -0.11969E-04   832   0.358E-02    0.481E-02
DAV:   8    -0.871276133935E+03   -0.77347E-04   -0.11948E-04   800   0.326E-02    0.204E-02
DAV:   9    -0.871276214960E+03   -0.81025E-04   -0.36541E-05   832   0.215E-02    0.111E-02
DAV:  10    -0.871276279462E+03   -0.64502E-04   -0.27516E-05   808   0.153E-02    0.925E-03
DAV:  11    -0.871276329529E+03   -0.50067E-04   -0.89778E-06   744   0.130E-02    0.585E-03
DAV:  12    -0.871276341130E+03   -0.11601E-04   -0.92695E-06   808   0.730E-03    0.421E-03
DAV:  13    -0.871276343183E+03   -0.20533E-05   -0.10690E-06   584   0.211E-03    0.364E-03
DAV:  14    -0.871276346807E+03   -0.36242E-05   -0.54695E-07   488   0.193E-03    0.171E-03
DAV:  15    -0.871276349057E+03   -0.22491E-05   -0.56565E-07   512   0.177E-03    0.113E-03
DAV:  16    -0.871276349533E+03   -0.47595E-06   -0.42647E-07   512   0.171E-03
  27 F= -.87127635E+03 E0= -.87127635E+03  d E =-.301428E+00
       N       E                     dE             d eps       ncg     rms          rms(c)
DAV:   1    -0.871288007815E+03   -0.11659E-01   -0.22364E+01   704   0.858E+00    0.120E+00
DAV:   2    -0.871335165017E+03   -0.47157E-01   -0.57669E-01   800   0.119E+00    0.602E-01
DAV:   3    -0.871330142327E+03    0.50227E-02   -0.12743E-02   824   0.237E-01    0.360E-01
DAV:   4    -0.871328332655E+03    0.18097E-02   -0.79762E-03   808   0.208E-01    0.982E-02
DAV:   5    -0.871328394774E+03   -0.62119E-04   -0.20423E-03   856   0.990E-02    0.740E-02
DAV:   6    -0.871328408221E+03   -0.13446E-04   -0.33675E-04   784   0.400E-02    0.463E-02
DAV:   7    -0.871328415665E+03   -0.74441E-05   -0.35564E-05   824   0.185E-02    0.297E-02
DAV:   8    -0.871328456194E+03   -0.40529E-04   -0.41488E-05   776   0.193E-02    0.105E-02
DAV:   9    -0.871328484956E+03   -0.28762E-04   -0.16047E-05   856   0.131E-02    0.727E-03
DAV:  10    -0.871328506106E+03   -0.21150E-04   -0.87072E-06   792   0.798E-03    0.579E-03
DAV:  11    -0.871328525284E+03   -0.19177E-04   -0.22265E-06   624   0.692E-03    0.346E-03
DAV:  12    -0.871328532641E+03   -0.73574E-05   -0.30855E-06   664   0.568E-03    0.180E-03
DAV:  13    -0.871328534597E+03   -0.19563E-05   -0.13481E-06   576   0.280E-03    0.157E-03
DAV:  14    -0.871328535148E+03   -0.55024E-06   -0.21075E-07   512   0.104E-03
  28 F= -.87132854E+03 E0= -.87132854E+03  d E =-.353613E+00
       N       E                     dE             d eps       ncg     rms          rms(c)
DAV:   1    -0.871510364601E+03   -0.18183E+00   -0.38628E+01   704   0.118E+01    0.165E+00
DAV:   2    -0.871577471716E+03   -0.67107E-01   -0.87787E-01   808   0.162E+00    0.768E-01
DAV:   3    -0.871568315767E+03    0.91559E-02   -0.25883E-02   824   0.345E-01    0.458E-01
DAV:   4    -0.871565211086E+03    0.31047E-02   -0.15711E-02   808   0.292E-01    0.154E-01
DAV:   5    -0.871565079855E+03    0.13123E-03   -0.31572E-03   888   0.143E-01    0.116E-01
DAV:   6    -0.871565030700E+03    0.49155E-04   -0.11094E-03   808   0.793E-02    0.660E-02
DAV:   7    -0.871564982295E+03    0.48405E-04   -0.15699E-04   824   0.369E-02    0.440E-02
DAV:   8    -0.871564965534E+03    0.16761E-04   -0.81372E-05   808   0.280E-02    0.188E-02
DAV:   9    -0.871564975727E+03   -0.10193E-04   -0.23429E-05   880   0.262E-02    0.862E-03
DAV:  10    -0.871564998922E+03   -0.23195E-04   -0.39611E-05   856   0.235E-02    0.955E-03
DAV:  11    -0.871565014215E+03   -0.15293E-04   -0.18758E-05   800   0.116E-02    0.744E-03
DAV:  12    -0.871565017267E+03   -0.30524E-05   -0.21023E-06   584   0.422E-03    0.546E-03
DAV:  13    -0.871565021299E+03   -0.40319E-05   -0.18800E-06   584   0.332E-03    0.205E-03
DAV:  14    -0.871565022893E+03   -0.15933E-05   -0.45944E-07   520   0.198E-03    0.103E-03
DAV:  15    -0.871565023746E+03   -0.85349E-06   -0.33868E-07   504   0.156E-03
  29 F= -.87156502E+03 E0= -.87156502E+03  d E =-.236489E+00
       N       E                     dE             d eps       ncg     rms          rms(c)
DAV:   1    -0.871585181094E+03   -0.20158E-01   -0.14050E+01   704   0.713E+00    0.100E+00
DAV:   2    -0.871609661165E+03   -0.24480E-01   -0.32119E-01   808   0.976E-01    0.466E-01
DAV:   3    -0.871606244769E+03    0.34164E-02   -0.92321E-03   824   0.208E-01    0.275E-01
DAV:   4    -0.871605096192E+03    0.11486E-02   -0.55137E-03   808   0.175E-01    0.909E-02
DAV:   5    -0.871605061347E+03    0.34846E-04   -0.11769E-03   872   0.869E-02    0.685E-02
DAV:   6    -0.871605044406E+03    0.16941E-04   -0.35858E-04   808   0.449E-02    0.398E-02
DAV:   7    -0.871605027276E+03    0.17130E-04   -0.48234E-05   832   0.210E-02    0.268E-02
DAV:   8    -0.871605022341E+03    0.49351E-05   -0.30058E-05   792   0.173E-02    0.112E-02
DAV:   9    -0.871605027014E+03   -0.46733E-05   -0.96432E-06   880   0.157E-02    0.571E-03
DAV:  10    -0.871605035257E+03   -0.82428E-05   -0.15532E-05   856   0.140E-02    0.607E-03
DAV:  11    -0.871605039940E+03   -0.46830E-05   -0.60013E-06   800   0.698E-03    0.396E-03
DAV:  12    -0.871605041219E+03   -0.12788E-05   -0.76668E-07   520   0.313E-03    0.293E-03
DAV:  13    -0.871605042636E+03   -0.14177E-05   -0.60097E-07   488   0.214E-03    0.101E-03
DAV:  14    -0.871605043051E+03   -0.41483E-06   -0.25663E-07   520   0.114E-03
  30 F= -.87160504E+03 E0= -.87160504E+03  d E =-.276508E+00
       N       E                     dE             d eps       ncg     rms          rms(c)
DAV:   1    -0.871756000255E+03   -0.15096E+00   -0.61903E+01   704   0.151E+01    0.185E+00
DAV:   2    -0.871868965660E+03   -0.11297E+00   -0.13466E+00   808   0.200E+00    0.857E-01
DAV:   3    -0.871857521509E+03    0.11444E-01   -0.24413E-02   824   0.383E-01    0.528E-01
DAV:   4    -0.871851632423E+03    0.58891E-02   -0.28195E-02   808   0.461E-01    0.155E-01
DAV:   5    -0.871851956257E+03   -0.32383E-03   -0.81663E-03   808   0.181E-01    0.163E-01
DAV:   6    -0.871851744601E+03    0.21166E-03   -0.11395E-03   808   0.666E-02    0.966E-02
DAV:   7    -0.871851626043E+03    0.11856E-03   -0.17828E-04   808   0.356E-02    0.438E-02
DAV:   8    -0.871851579399E+03    0.46644E-04   -0.86110E-05   896   0.437E-02    0.139E-02
DAV:   9    -0.871851595975E+03   -0.16575E-04   -0.78953E-05   896   0.353E-02    0.940E-03
DAV:  10    -0.871851620364E+03   -0.24389E-04   -0.33285E-05   800   0.173E-02    0.852E-03
DAV:  11    -0.871851628984E+03   -0.86203E-05   -0.49051E-06   728   0.723E-03    0.753E-03
DAV:  12    -0.871851636042E+03   -0.70575E-05   -0.13001E-06   528   0.492E-03    0.430E-03
DAV:  13    -0.871851643319E+03   -0.72768E-05   -0.27341E-06   632   0.589E-03    0.273E-03
DAV:  14    -0.871851644723E+03   -0.14041E-05   -0.22828E-06   576   0.333E-03    0.183E-03
DAV:  15    -0.871851645782E+03   -0.10591E-05   -0.27666E-07   512   0.107E-03    0.127E-03
DAV:  16    -0.871851646386E+03   -0.60438E-06   -0.11812E-07   512   0.820E-04
  31 F= -.87185165E+03 E0= -.87185165E+03  d E =-.246603E+00
       N       E                     dE             d eps       ncg     rms          rms(c)
DAV:   1    -0.871854285355E+03   -0.26396E-02   -0.35746E+01   704   0.114E+01    0.140E+00
DAV:   2    -0.871917654354E+03   -0.63369E-01   -0.75900E-01   808   0.150E+00    0.646E-01
DAV:   3    -0.871911040827E+03    0.66135E-02   -0.13858E-02   824   0.286E-01    0.396E-01
DAV:   4    -0.871907660216E+03    0.33806E-02   -0.15944E-02   816   0.343E-01    0.115E-01
DAV:   5    -0.871907850548E+03   -0.19033E-03   -0.45857E-03   808   0.135E-01    0.123E-01
DAV:   6    -0.871907731854E+03    0.11869E-03   -0.61870E-04   808   0.493E-02    0.741E-02
DAV:   7    -0.871907660699E+03    0.71155E-04   -0.10738E-04   808   0.276E-02    0.326E-02
DAV:   8    -0.871907634677E+03    0.26022E-04   -0.52270E-05   896   0.328E-02    0.107E-02
DAV:   9    -0.871907645084E+03   -0.10407E-04   -0.46204E-05   896   0.271E-02    0.750E-03
DAV:  10    -0.871907659562E+03   -0.14478E-04   -0.20455E-05   800   0.130E-02    0.680E-03
DAV:  11    -0.871907664574E+03   -0.50120E-05   -0.22936E-06   584   0.554E-03    0.576E-03
DAV:  12    -0.871907669916E+03   -0.53413E-05   -0.12820E-06   528   0.507E-03    0.301E-03
DAV:  13    -0.871907673625E+03   -0.37096E-05   -0.19955E-06   568   0.439E-03    0.172E-03
DAV:  14    -0.871907674652E+03   -0.10264E-05   -0.10943E-06   520   0.223E-03    0.129E-03
DAV:  15    -0.871907675300E+03   -0.64821E-06   -0.17791E-07   504   0.854E-04
  32 F= -.87190768E+03 E0= -.87190768E+03  d E =-.302632E+00
       N       E                     dE             d eps       ncg     rms          rms(c)
DAV:   1    -0.872004717689E+03   -0.97043E-01   -0.56908E+01   704   0.143E+01    0.168E+00
DAV:   2    -0.872107984512E+03   -0.10327E+00   -0.12200E+00   808   0.187E+00    0.800E-01
DAV:   3    -0.872098389850E+03    0.95947E-02   -0.21885E-02   832   0.330E-01    0.499E-01
DAV:   4    -0.872093304308E+03    0.50855E-02   -0.24122E-02   808   0.377E-01    0.149E-01
DAV:   5    -0.872093401746E+03   -0.97438E-04   -0.58183E-03   824   0.161E-01    0.142E-01
DAV:   6    -0.872093239108E+03    0.16264E-03   -0.12764E-03   808   0.779E-02    0.787E-02
DAV:   7    -0.872093145470E+03    0.93638E-04   -0.13456E-04   840   0.417E-02    0.373E-02
DAV:   8    -0.872093092113E+03    0.53357E-04   -0.96047E-05   904   0.444E-02    0.121E-02
DAV:   9    -0.872093090289E+03    0.18240E-05   -0.72029E-05   872   0.286E-02    0.104E-02
DAV:  10    -0.872093094581E+03   -0.42927E-05   -0.15629E-05   808   0.110E-02    0.992E-03
DAV:  11    -0.872093097595E+03   -0.30132E-05   -0.21262E-06   584   0.644E-03    0.570E-03
DAV:  12    -0.872093106695E+03   -0.91003E-05   -0.84108E-06   760   0.119E-02    0.480E-03
DAV:  13    -0.872093109774E+03   -0.30792E-05   -0.71991E-06   736   0.637E-03    0.234E-03
DAV:  14    -0.872093111304E+03   -0.15303E-05   -0.73805E-07   512   0.181E-03    0.232E-03
DAV:  15    -0.872093112804E+03   -0.14995E-05   -0.21423E-07   512   0.113E-03    0.118E-03
DAV:  16    -0.872093113581E+03   -0.77726E-06   -0.26647E-07   512   0.128E-03
  33 F= -.87209311E+03 E0= -.87209311E+03  d E =-.185438E+00
       N       E                     dE             d eps       ncg     rms          rms(c)
DAV:   1    -0.872078810489E+03    0.14302E-01   -0.40568E+01   704   0.121E+01    0.142E+00
DAV:   2    -0.872151812439E+03   -0.73002E-01   -0.86476E-01   808   0.157E+00    0.671E-01
DAV:   3    -0.872144951495E+03    0.68609E-02   -0.15409E-02   832   0.279E-01    0.418E-01
DAV:   4    -0.872141311273E+03    0.36402E-02   -0.16736E-02   808   0.317E-01    0.122E-01
DAV:   5    -0.872141408010E+03   -0.96737E-04   -0.41870E-03   824   0.136E-01    0.119E-01
DAV:   6    -0.872141295811E+03    0.11220E-03   -0.84177E-04   808   0.631E-02    0.683E-02
DAV:   7    -0.872141224903E+03    0.70908E-04   -0.90051E-05   848   0.351E-02    0.317E-02
DAV:   8    -0.872141187066E+03    0.37837E-04   -0.74901E-05   912   0.382E-02    0.104E-02
DAV:   9    -0.872141186594E+03    0.47194E-06   -0.54433E-05   872   0.253E-02    0.907E-03
DAV:  10    -0.872141189750E+03   -0.31560E-05   -0.13385E-05   808   0.945E-03    0.913E-03
DAV:  11    -0.872141191589E+03   -0.18387E-05   -0.15794E-06   528   0.462E-03    0.543E-03
DAV:  12    -0.872141198751E+03   -0.71628E-05   -0.76768E-06   768   0.106E-02    0.466E-03
DAV:  13    -0.872141200432E+03   -0.16807E-05   -0.44861E-06   696   0.515E-03    0.172E-03
DAV:  14    -0.872141201986E+03   -0.15542E-05   -0.78184E-07   504   0.220E-03    0.164E-03
DAV:  15    -0.872141203159E+03   -0.11723E-05   -0.18434E-07   512   0.120E-03    0.960E-04
DAV:  16    -0.872141203745E+03   -0.58678E-06   -0.15203E-07   520   0.105E-03
  34 F= -.87214120E+03 E0= -.87214120E+03  d E =-.233528E+00
       N       E                     dE             d eps       ncg     rms          rms(c)
DAV:   1    -0.872208427567E+03   -0.67224E-01   -0.31299E+01   704   0.107E+01    0.123E+00
DAV:   2    -0.872264065076E+03   -0.55638E-01   -0.65538E-01   808   0.139E+00    0.573E-01
DAV:   3    -0.872258637979E+03    0.54271E-02   -0.11684E-02   816   0.265E-01    0.350E-01
DAV:   4    -0.872255708281E+03    0.29297E-02   -0.12280E-02   816   0.312E-01    0.970E-02
DAV:   5    -0.872255855690E+03   -0.14741E-03   -0.37348E-03   808   0.126E-01    0.110E-01
DAV:   6    -0.872255754667E+03    0.10102E-03   -0.43994E-04   808   0.436E-02    0.708E-02
DAV:   7    -0.872255656519E+03    0.98148E-04   -0.10050E-04   800   0.304E-02    0.312E-02
DAV:   8    -0.872255607378E+03    0.49141E-04   -0.73785E-05   912   0.379E-02    0.114E-02
DAV:   9    -0.872255604945E+03    0.24336E-05   -0.64751E-05   920   0.346E-02    0.109E-02
DAV:  10    -0.872255614679E+03   -0.97345E-05   -0.36348E-05   808   0.171E-02    0.883E-03
DAV:  11    -0.872255617527E+03   -0.28475E-05   -0.45834E-06   688   0.530E-03    0.778E-03
DAV:  12    -0.872255622193E+03   -0.46664E-05   -0.13668E-06   544   0.553E-03    0.417E-03
DAV:  13    -0.872255626708E+03   -0.45153E-05   -0.24992E-06   608   0.646E-03    0.315E-03
DAV:  14    -0.872255628286E+03   -0.15780E-05   -0.33507E-06   688   0.430E-03    0.169E-03
DAV:  15    -0.872255628459E+03   -0.17283E-06   -0.31786E-07   528   0.149E-03
  35 F= -.87225563E+03 E0= -.87225563E+03  d E =-.114425E+00
       N       E                     dE             d eps       ncg     rms          rms(c)
DAV:   1    -0.872251853701E+03    0.37746E-02   -0.23757E+01   704   0.929E+00    0.106E+00
DAV:   2    -0.872293858973E+03   -0.42005E-01   -0.49472E-01   808   0.121E+00    0.495E-01
DAV:   3    -0.872289793233E+03    0.40657E-02   -0.88591E-03   816   0.228E-01    0.303E-01
DAV:   4    -0.872287563191E+03    0.22300E-02   -0.93009E-03   816   0.270E-01    0.837E-02
DAV:   5    -0.872287677891E+03   -0.11470E-03   -0.28457E-03   816   0.110E-01    0.957E-02
DAV:   6    -0.872287601432E+03    0.76459E-04   -0.32564E-04   808   0.375E-02    0.619E-02
DAV:   7    -0.872287525457E+03    0.75975E-04   -0.84445E-05   800   0.272E-02    0.266E-02
DAV:   8    -0.872287490106E+03    0.35351E-04   -0.57175E-05   904   0.328E-02    0.103E-02
DAV:   9    -0.872287489080E+03    0.10258E-05   -0.48980E-05   920   0.299E-02    0.964E-03
DAV:  10    -0.872287496562E+03   -0.74815E-05   -0.26827E-05   808   0.147E-02    0.759E-03
DAV:  11    -0.872287499072E+03   -0.25100E-05   -0.32705E-06   624   0.497E-03    0.651E-03
DAV:  12    -0.872287503358E+03   -0.42858E-05   -0.12827E-06   512   0.576E-03    0.337E-03
DAV:  13    -0.872287506595E+03   -0.32368E-05   -0.21133E-06   560   0.559E-03    0.253E-03
DAV:  14    -0.872287507775E+03   -0.11802E-05   -0.24332E-06   616   0.363E-03    0.138E-03
DAV:  15    -0.872287507993E+03   -0.21771E-06   -0.27364E-07   520   0.129E-03
  36 F= -.87228751E+03 E0= -.87228751E+03  d E =-.146304E+00
       N       E                     dE             d eps       ncg     rms          rms(c)
DAV:   1    -0.872334045747E+03   -0.46538E-01   -0.35823E+01   704   0.115E+01    0.125E+00
DAV:   2    -0.872399692835E+03   -0.65647E-01   -0.75674E-01   816   0.150E+00    0.585E-01
DAV:   3    -0.872394422382E+03    0.52705E-02   -0.13861E-02   832   0.255E-01    0.358E-01
DAV:   4    -0.872391472356E+03    0.29500E-02   -0.11592E-02   808   0.270E-01    0.993E-02
DAV:   5    -0.872391586327E+03   -0.11397E-03   -0.29179E-03   824   0.117E-01    0.956E-02
DAV:   6    -0.872391536221E+03    0.50105E-04   -0.55606E-04   808   0.525E-02    0.556E-02
DAV:   7    -0.872391515154E+03    0.21067E-04   -0.61886E-05   776   0.261E-02    0.261E-02
DAV:   8    -0.872391516457E+03   -0.13029E-05   -0.48871E-05   888   0.292E-02    0.808E-03
DAV:   9    -0.872391535296E+03   -0.18839E-04   -0.35194E-05   872   0.188E-02    0.822E-03
DAV:  10    -0.872391540451E+03   -0.51552E-05   -0.73133E-06   784   0.577E-03    0.837E-03
DAV:  11    -0.872391543301E+03   -0.28500E-05   -0.96079E-07   504   0.262E-03    0.544E-03
DAV:  12    -0.872391552310E+03   -0.90083E-05   -0.77621E-06   744   0.789E-03    0.524E-03
DAV:  13    -0.872391552924E+03   -0.61488E-06   -0.28039E-06   616   0.431E-03
  37 F= -.87239155E+03 E0= -.87239155E+03  d E =-.104045E+00
       N       E                     dE             d eps       ncg     rms          rms(c)
DAV:   1    -0.872387746576E+03    0.38057E-02   -0.13356E+01   704   0.702E+00    0.757E-01
DAV:   2    -0.872412092704E+03   -0.24346E-01   -0.28098E-01   816   0.910E-01    0.356E-01
DAV:   3    -0.872410134626E+03    0.19581E-02   -0.50829E-03   832   0.154E-01    0.218E-01
DAV:   4    -0.872409024994E+03    0.11096E-02   -0.43170E-03   808   0.166E-01    0.595E-02
DAV:   5    -0.872409073901E+03   -0.48907E-04   -0.11203E-03   816   0.716E-02    0.585E-02
DAV:   6    -0.872409055206E+03    0.18695E-04   -0.19716E-04   808   0.311E-02    0.347E-02
DAV:   7    -0.872409046929E+03    0.82766E-05   -0.23130E-05   776   0.160E-02    0.159E-02
DAV:   8    -0.872409047915E+03   -0.98602E-06   -0.19568E-05   872   0.183E-02    0.525E-03
DAV:   9    -0.872409054893E+03   -0.69775E-05   -0.14782E-05   888   0.124E-02    0.545E-03
DAV:  10    -0.872409056441E+03   -0.15482E-05   -0.32503E-06   664   0.368E-03    0.556E-03
DAV:  11    -0.872409057305E+03   -0.86414E-06   -0.45208E-07   496   0.161E-03
  38 F= -.87240906E+03 E0= -.87240906E+03  d E =-.121549E+00
       N       E                     dE             d eps       ncg     rms          rms(c)
DAV:   1    -0.872436879397E+03   -0.27823E-01   -0.15817E+01   704   0.774E+00    0.971E-01
DAV:   2    -0.872465273341E+03   -0.28394E-01   -0.33553E-01   808   0.103E+00    0.410E-01
DAV:   3    -0.872462232093E+03    0.30412E-02   -0.71525E-03   808   0.206E-01    0.242E-01
DAV:   4    -0.872460699055E+03    0.15330E-02   -0.60948E-03   808   0.223E-01    0.702E-02
DAV:   5    -0.872460762151E+03   -0.63097E-04   -0.20203E-03   816   0.983E-02    0.823E-02
DAV:   6    -0.872460709762E+03    0.52390E-04   -0.23870E-04   808   0.327E-02    0.536E-02
DAV:   7    -0.872460653076E+03    0.56685E-04   -0.35252E-05   840   0.235E-02    0.272E-02
DAV:   8    -0.872460617158E+03    0.35918E-04   -0.39575E-05   920   0.325E-02    0.803E-03
DAV:   9    -0.872460617272E+03   -0.11399E-06   -0.42702E-05   912   0.328E-02    0.708E-03
DAV:  10    -0.872460625813E+03   -0.85410E-05   -0.30348E-05   792   0.126E-02    0.838E-03
DAV:  11    -0.872460626887E+03   -0.10742E-05   -0.16017E-06   544   0.261E-03    0.782E-03
DAV:  12    -0.872460628429E+03   -0.15419E-05   -0.50355E-07   496   0.236E-03    0.543E-03
DAV:  13    -0.872460631988E+03   -0.35594E-05   -0.24478E-06   560   0.361E-03    0.305E-03
DAV:  14    -0.872460632438E+03   -0.45014E-06   -0.74303E-07   520   0.207E-03
  39 F= -.87246063E+03 E0= -.87246063E+03  d E =-.515751E-01
       N       E                     dE             d eps       ncg     rms          rms(c)
DAV:   1    -0.872461475044E+03   -0.84306E-03   -0.18900E+00   704   0.268E+00    0.335E-01
DAV:   2    -0.872464833431E+03   -0.33584E-02   -0.39760E-02   808   0.355E-01    0.141E-01
DAV:   3    -0.872464474579E+03    0.35885E-03   -0.85283E-04   824   0.707E-02    0.832E-02
DAV:   4    -0.872464292218E+03    0.18236E-03   -0.71316E-04   808   0.759E-02    0.239E-02
DAV:   5    -0.872464299638E+03   -0.74206E-05   -0.23684E-04   816   0.338E-02    0.281E-02
DAV:   6    -0.872464293649E+03    0.59887E-05   -0.28550E-05   808   0.114E-02    0.183E-02
DAV:   7    -0.872464287242E+03    0.64070E-05   -0.36742E-06   712   0.820E-03    0.943E-03
DAV:   8    -0.872464283266E+03    0.39760E-05   -0.50173E-06   720   0.115E-02    0.282E-03
DAV:   9    -0.872464283814E+03   -0.54800E-06   -0.65562E-06   768   0.128E-02
  40 F= -.87246428E+03 E0= -.87246428E+03  d E =-.552265E-01
       N       E                     dE             d eps       ncg     rms          rms(c)
DAV:   1    -0.872480105945E+03   -0.15823E-01   -0.11179E+01   704   0.652E+00    0.784E-01
DAV:   2    -0.872500297192E+03   -0.20191E-01   -0.24102E-01   808   0.884E-01    0.360E-01
DAV:   3    -0.872498196383E+03    0.21008E-02   -0.50989E-03   824   0.169E-01    0.220E-01
DAV:   4    -0.872497009217E+03    0.11872E-02   -0.54900E-03   808   0.199E-01    0.720E-02
DAV:   5    -0.872497020433E+03   -0.11216E-04   -0.15102E-03   824   0.866E-02    0.757E-02
DAV:   6    -0.872496975535E+03    0.44898E-04   -0.26628E-04   808   0.350E-02    0.483E-02
DAV:   7    -0.872496930292E+03    0.45244E-04   -0.40877E-05   920   0.253E-02    0.220E-02
DAV:   8    -0.872496906253E+03    0.24039E-04   -0.41644E-05   952   0.304E-02    0.759E-03
DAV:   9    -0.872496907870E+03   -0.16175E-05   -0.36069E-05   896   0.222E-02    0.690E-03
DAV:  10    -0.872496910344E+03   -0.24736E-05   -0.11271E-05   808   0.744E-03    0.663E-03
DAV:  11    -0.872496910849E+03   -0.50522E-06   -0.91081E-07   512   0.357E-03
  41 F= -.87249691E+03 E0= -.87249691E+03  d E =-.326270E-01
       N       E                     dE             d eps       ncg     rms          rms(c)
DAV:   1    -0.872497195698E+03   -0.28535E-03   -0.81478E-01   704   0.176E+00    0.211E-01
DAV:   2    -0.872498658640E+03   -0.14629E-02   -0.17532E-02   816   0.239E-01    0.970E-02
DAV:   3    -0.872498506181E+03    0.15246E-03   -0.37646E-04   832   0.456E-02    0.593E-02
DAV:   4    -0.872498419210E+03    0.86971E-04   -0.39247E-04   808   0.531E-02    0.194E-02
DAV:   5    -0.872498419744E+03   -0.53406E-06   -0.10816E-04   832   0.234E-02    0.203E-02
DAV:   6    -0.872498416469E+03    0.32746E-05   -0.20019E-05   808   0.967E-03    0.130E-02
DAV:   7    -0.872498413146E+03    0.33230E-05   -0.25353E-06   616   0.707E-03    0.587E-03
DAV:   8    -0.872498411540E+03    0.16068E-05   -0.43644E-06   728   0.887E-03    0.247E-03
DAV:   9    -0.872498411884E+03   -0.34423E-06   -0.39118E-06   680   0.711E-03
  42 F= -.87249841E+03 E0= -.87249841E+03  d E =-.341281E-01
       N       E                     dE             d eps       ncg     rms          rms(c)
DAV:   1    -0.872507426534E+03   -0.90150E-02   -0.12589E+01   704   0.692E+00    0.728E-01
DAV:   2    -0.872530471466E+03   -0.23045E-01   -0.26521E-01   800   0.909E-01    0.349E-01
DAV:   3    -0.872528817037E+03    0.16544E-02   -0.47976E-03   832   0.153E-01    0.222E-01
DAV:   4    -0.872527829633E+03    0.98740E-03   -0.53980E-03   808   0.197E-01    0.713E-02
DAV:   5    -0.872527879049E+03   -0.49416E-04   -0.14241E-03   808   0.786E-02    0.712E-02
DAV:   6    -0.872527840583E+03    0.38465E-04   -0.24683E-04   808   0.327E-02    0.404E-02
DAV:   7    -0.872527820997E+03    0.19587E-04   -0.60588E-05   808   0.204E-02    0.157E-02
DAV:   8    -0.872527817075E+03    0.39220E-05   -0.24842E-05   848   0.185E-02    0.729E-03
DAV:   9    -0.872527817685E+03   -0.61031E-06   -0.14678E-05   912   0.132E-02    0.622E-03
DAV:  10    -0.872527818211E+03   -0.52632E-06   -0.43227E-06   696   0.461E-03
  43 F= -.87252782E+03 E0= -.87252782E+03  d E =-.294063E-01
       N       E                     dE             d eps       ncg     rms          rms(c)
DAV:   1    -0.872524904819E+03    0.29129E-02   -0.49136E+00   704   0.432E+00    0.454E-01
DAV:   2    -0.872533854176E+03   -0.89494E-02   -0.10321E-01   800   0.569E-01    0.218E-01
DAV:   3    -0.872533198335E+03    0.65584E-03   -0.18729E-03   832   0.961E-02    0.138E-01
DAV:   4    -0.872532801157E+03    0.39718E-03   -0.20997E-03   808   0.124E-01    0.444E-02
DAV:   5    -0.872532821366E+03   -0.20209E-04   -0.57052E-04   808   0.499E-02    0.448E-02
DAV:   6    -0.872532806105E+03    0.15261E-04   -0.95075E-05   808   0.203E-02    0.257E-02
DAV:   7    -0.872532798167E+03    0.79374E-05   -0.24862E-05   792   0.135E-02    0.983E-03
DAV:   8    -0.872532797098E+03    0.10697E-05   -0.10869E-05   840   0.127E-02    0.496E-03
DAV:   9    -0.872532797999E+03   -0.90140E-06   -0.68169E-06   768   0.948E-03
  44 F= -.87253280E+03 E0= -.87253280E+03  d E =-.343861E-01
       N       E                     dE             d eps       ncg     rms          rms(c)
DAV:   1    -0.872533326961E+03   -0.52986E-03   -0.15247E+01   704   0.761E+00    0.782E-01
DAV:   2    -0.872561768392E+03   -0.28441E-01   -0.32508E-01   800   0.998E-01    0.378E-01
DAV:   3    -0.872559772688E+03    0.19957E-02   -0.58937E-03   832   0.172E-01    0.240E-01
DAV:   4    -0.872558500590E+03    0.12721E-02   -0.59875E-03   808   0.210E-01    0.746E-02
DAV:   5    -0.872558572294E+03   -0.71704E-04   -0.17136E-03   824   0.869E-02    0.778E-02
DAV:   6    -0.872558530272E+03    0.42022E-04   -0.26542E-04   808   0.351E-02    0.481E-02
DAV:   7    -0.872558500809E+03    0.29463E-04   -0.61127E-05   808   0.222E-02    0.199E-02
DAV:   8    -0.872558491271E+03    0.95381E-05   -0.33909E-05   872   0.219E-02    0.746E-03
DAV:   9    -0.872558490530E+03    0.74049E-06   -0.23158E-05   872   0.157E-02    0.764E-03
DAV:  10    -0.872558490137E+03    0.39313E-06   -0.59373E-06   784   0.543E-03
  45 F= -.87255849E+03 E0= -.87255849E+03  d E =-.256921E-01
       N       E                     dE             d eps       ncg     rms          rms(c)
DAV:   1    -0.872554370879E+03    0.41197E-02   -0.45783E+00   704   0.417E+00    0.428E-01
DAV:   2    -0.872562872771E+03   -0.85019E-02   -0.97401E-02   800   0.546E-01    0.207E-01
DAV:   3    -0.872562264741E+03    0.60803E-03   -0.17758E-03   832   0.950E-02    0.131E-01
DAV:   4    -0.872561869250E+03    0.39549E-03   -0.17762E-03   824   0.116E-01    0.408E-02
DAV:   5    -0.872561890724E+03   -0.21474E-04   -0.52968E-04   808   0.488E-02    0.429E-02
DAV:   6    -0.872561877631E+03    0.13093E-04   -0.80569E-05   816   0.194E-02    0.270E-02
DAV:   7    -0.872561867325E+03    0.10306E-04   -0.18279E-05   800   0.128E-02    0.113E-02
DAV:   8    -0.872561863650E+03    0.36746E-05   -0.11338E-05   848   0.136E-02    0.450E-03
DAV:   9    -0.872561863413E+03    0.23719E-06   -0.93527E-06   840   0.107E-02
  46 F= -.87256186E+03 E0= -.87256186E+03  d E =-.290654E-01
       N       E                     dE             d eps       ncg     rms          rms(c)
DAV:   1    -0.872555599753E+03    0.62639E-02   -0.16693E+01   704   0.798E+00    0.809E-01
DAV:   2    -0.872587723768E+03   -0.32124E-01   -0.36108E-01   800   0.105E+00    0.390E-01
DAV:   3    -0.872585694199E+03    0.20296E-02   -0.62738E-03   832   0.175E-01    0.247E-01
DAV:   4    -0.872584399528E+03    0.12947E-02   -0.62298E-03   808   0.214E-01    0.756E-02
DAV:   5    -0.872584477096E+03   -0.77568E-04   -0.17225E-03   800   0.870E-02    0.767E-02
DAV:   6    -0.872584440660E+03    0.36435E-04   -0.27615E-04   808   0.352E-02    0.456E-02
DAV:   7    -0.872584421595E+03    0.19065E-04   -0.54674E-05   792   0.189E-02    0.198E-02
DAV:   8    -0.872584417256E+03    0.43384E-05   -0.27631E-05   824   0.183E-02    0.671E-03
DAV:   9    -0.872584418749E+03   -0.14929E-05   -0.16481E-05   864   0.123E-02    0.673E-03
DAV:  10    -0.872584419088E+03   -0.33927E-06   -0.36742E-06   648   0.414E-03
  47 F= -.87258442E+03 E0= -.87258442E+03  d E =-.225557E-01
       N       E                     dE             d eps       ncg     rms          rms(c)
DAV:   1    -0.872581744203E+03    0.26745E-02   -0.27536E+00   704   0.324E+00    0.327E-01
DAV:   2    -0.872587005587E+03   -0.52614E-02   -0.59311E-02   800   0.426E-01    0.158E-01
DAV:   3    -0.872586667545E+03    0.33804E-03   -0.10336E-03   832   0.712E-02    0.100E-01
DAV:   4    -0.872586447576E+03    0.21997E-03   -0.10236E-03   816   0.878E-02    0.307E-02
DAV:   5    -0.872586461095E+03   -0.13519E-04   -0.29349E-04   808   0.361E-02    0.315E-02
DAV:   6    -0.872586455015E+03    0.60808E-05   -0.45356E-05   808   0.143E-02    0.191E-02
DAV:   7    -0.872586451882E+03    0.31321E-05   -0.91896E-06   784   0.820E-03    0.821E-03
DAV:   8    -0.872586451571E+03    0.31174E-06   -0.53420E-06   752   0.867E-03
  48 F= -.87258645E+03 E0= -.87258645E+03  d E =-.245882E-01
       N       E                     dE             d eps       ncg     rms          rms(c)
DAV:   1    -0.872583241201E+03    0.32107E-02   -0.13221E+01   704   0.712E+00    0.737E-01
DAV:   2    -0.872608191303E+03   -0.24950E-01   -0.28382E-01   800   0.940E-01    0.350E-01
DAV:   3    -0.872606510203E+03    0.16811E-02   -0.52491E-03   832   0.161E-01    0.221E-01
DAV:   4    -0.872605482213E+03    0.10280E-02   -0.52093E-03   808   0.195E-01    0.714E-02
DAV:   5    -0.872605527182E+03   -0.44969E-04   -0.13622E-03   808   0.787E-02    0.715E-02
DAV:   6    -0.872605492113E+03    0.35069E-04   -0.24867E-04   808   0.339E-02    0.413E-02
DAV:   7    -0.872605473043E+03    0.19071E-04   -0.51648E-05   792   0.195E-02    0.176E-02
DAV:   8    -0.872605468287E+03    0.47555E-05   -0.25094E-05   832   0.180E-02    0.684E-03
DAV:   9    -0.872605470759E+03   -0.24717E-05   -0.15610E-05   824   0.119E-02    0.673E-03
DAV:  10    -0.872605471556E+03   -0.79721E-06   -0.30374E-06   608   0.379E-03
  49 F= -.87260547E+03 E0= -.87260547E+03  d E =-.190200E-01
       N       E                     dE             d eps       ncg     rms          rms(c)
DAV:   1    -0.872603647178E+03    0.18236E-02   -0.20353E+00   704   0.279E+00    0.288E-01
DAV:   2    -0.872607456762E+03   -0.38096E-02   -0.43500E-02   800   0.369E-01    0.137E-01
DAV:   3    -0.872607194009E+03    0.26275E-03   -0.81328E-04   832   0.635E-02    0.869E-02
DAV:   4    -0.872607028348E+03    0.16566E-03   -0.78926E-04   816   0.767E-02    0.279E-02
DAV:   5    -0.872607035780E+03   -0.74314E-05   -0.21504E-04   800   0.315E-02    0.283E-02
DAV:   6    -0.872607030521E+03    0.52584E-05   -0.38507E-05   808   0.134E-02    0.167E-02
DAV:   7    -0.872607028016E+03    0.25050E-05   -0.79225E-06   784   0.816E-03    0.702E-03
DAV:   8    -0.872607028066E+03   -0.49127E-07   -0.44057E-06   712   0.824E-03
  50 F= -.87260703E+03 E0= -.87260703E+03  d E =-.205765E-01
       N       E                     dE             d eps       ncg     rms          rms(c)
DAV:   1    -0.872601091560E+03    0.59365E-02   -0.10940E+01   704   0.645E+00    0.685E-01
DAV:   2    -0.872620909545E+03   -0.19818E-01   -0.22876E-01   816   0.852E-01    0.325E-01
DAV:   3    -0.872619435324E+03    0.14742E-02   -0.45170E-03   824   0.151E-01    0.205E-01
DAV:   4    -0.872618569915E+03    0.86541E-03   -0.41999E-03   808   0.173E-01    0.651E-02
DAV:   5    -0.872618605676E+03   -0.35761E-04   -0.10936E-03   824   0.726E-02    0.644E-02
DAV:   6    -0.872618579971E+03    0.25705E-04   -0.21257E-04   800   0.319E-02    0.386E-02
DAV:   7    -0.872618566644E+03    0.13326E-04   -0.37392E-05   792   0.170E-02    0.161E-02
DAV:   8    -0.872618563942E+03    0.27023E-05   -0.17784E-05   864   0.165E-02    0.559E-03
DAV:   9    -0.872618565725E+03   -0.17832E-05   -0.11947E-05   872   0.112E-02    0.562E-03
DAV:  10    -0.872618566285E+03   -0.56018E-06   -0.28377E-06   640   0.367E-03
  51 F= -.87261857E+03 E0= -.87261857E+03  d E =-.115382E-01
       N       E                     dE             d eps       ncg     rms          rms(c)
DAV:   1    -0.872618566880E+03   -0.11547E-05   -0.20861E-04   784   0.283E-02    0.399E-03
DAV:   2    -0.872618567967E+03   -0.10866E-05   -0.50442E-06   720   0.435E-03    0.197E-03
DAV:   3    -0.872618568447E+03   -0.48056E-06   -0.20359E-07   520   0.168E-03
  52 F= -.87261857E+03 E0= -.87261857E+03  d E =-.115404E-01
       N       E                     dE             d eps       ncg     rms          rms(c)
DAV:   1    -0.872619211285E+03   -0.64332E-03   -0.52389E+00   704   0.448E+00    0.451E-01
DAV:   2    -0.872628883935E+03   -0.96727E-02   -0.11004E-01   808   0.586E-01    0.222E-01
DAV:   3    -0.872628219399E+03    0.66454E-03   -0.20345E-03   824   0.983E-02    0.141E-01
DAV:   4    -0.872627799083E+03    0.42032E-03   -0.20522E-03   808   0.123E-01    0.450E-02
DAV:   5    -0.872627815993E+03   -0.16910E-04   -0.54932E-04   808   0.499E-02    0.456E-02
DAV:   6    -0.872627800301E+03    0.15692E-04   -0.10021E-04   808   0.216E-02    0.265E-02
DAV:   7    -0.872627792080E+03    0.82217E-05   -0.24729E-05   792   0.132E-02    0.108E-02
DAV:   8    -0.872627790743E+03    0.13363E-05   -0.13362E-05   832   0.123E-02    0.522E-03
DAV:   9    -0.872627792135E+03   -0.13922E-05   -0.71036E-06   776   0.790E-03    0.484E-03
DAV:  10    -0.872627792557E+03   -0.42189E-06   -0.13398E-06   520   0.265E-03
  53 F= -.87262779E+03 E0= -.87262779E+03  d E =-.922411E-02
       N       E                     dE             d eps       ncg     rms          rms(c)
DAV:   1    -0.872626509731E+03    0.12824E-02   -0.15021E+00   704   0.240E+00    0.241E-01
DAV:   2    -0.872629268020E+03   -0.27583E-02   -0.31478E-02   808   0.314E-01    0.119E-01
DAV:   3    -0.872629074087E+03    0.19393E-03   -0.58895E-04   832   0.528E-02    0.754E-02
DAV:   4    -0.872628949905E+03    0.12418E-03   -0.58012E-04   808   0.655E-02    0.240E-02
DAV:   5    -0.872628954899E+03   -0.49934E-05   -0.15886E-04   816   0.270E-02    0.244E-02
DAV:   6    -0.872628950526E+03    0.43731E-05   -0.28859E-05   808   0.117E-02    0.143E-02
DAV:   7    -0.872628948521E+03    0.20046E-05   -0.71191E-06   776   0.738E-03    0.577E-03
DAV:   8    -0.872628948618E+03   -0.97119E-07   -0.39527E-06   672   0.721E-03
  54 F= -.87262895E+03 E0= -.87262895E+03  d E =-.103802E-01
       N       E                     dE             d eps       ncg     rms          rms(c)
DAV:   1    -0.872624265466E+03    0.46831E-02   -0.67958E+00   704   0.511E+00    0.565E-01
DAV:   2    -0.872636834405E+03   -0.12569E-01   -0.14415E-01   800   0.674E-01    0.249E-01
DAV:   3    -0.872635887134E+03    0.94727E-03   -0.28294E-03   832   0.117E-01    0.154E-01
DAV:   4    -0.872635341463E+03    0.54567E-03   -0.23979E-03   808   0.129E-01    0.457E-02
DAV:   5    -0.872635367494E+03   -0.26031E-04   -0.64367E-04   824   0.546E-02    0.477E-02
DAV:   6    -0.872635353483E+03    0.14012E-04   -0.10924E-04   808   0.227E-02    0.294E-02
DAV:   7    -0.872635343595E+03    0.98879E-05   -0.18940E-05   800   0.117E-02    0.128E-02
DAV:   8    -0.872635340002E+03    0.35926E-05   -0.98945E-06   848   0.121E-02    0.437E-03
DAV:   9    -0.872635340463E+03   -0.46095E-06   -0.79021E-06   800   0.919E-03
  55 F= -.87263534E+03 E0= -.87263534E+03  d E =-.639184E-02
       N       E                     dE             d eps       ncg     rms          rms(c)
DAV:   1    -0.872635338213E+03    0.17889E-05   -0.33697E-03   736   0.114E-01    0.122E-02
DAV:   2    -0.872635344365E+03   -0.61522E-05   -0.70641E-05   808   0.150E-02    0.573E-03
DAV:   3    -0.872635343848E+03    0.51737E-06   -0.11010E-06   504   0.306E-03
[...]
       N       E                     dE             d eps       ncg     rms          rms(c)
DAV:   1    -0.872641379602E+03    0.50879E-03   -0.56095E-01   704   0.147E+00    0.150E-01
DAV:   2    -0.872642418597E+03   -0.10390E-02   -0.11706E-02   808   0.191E-01    0.703E-02
DAV:   3    -0.872642347229E+03    0.71368E-04   -0.20824E-04   824   0.317E-02    0.438E-02
DAV:   4    -0.872642304152E+03    0.43077E-04   -0.20434E-04   816   0.388E-02    0.130E-02
DAV:   5    -0.872642307200E+03   -0.30481E-05   -0.57712E-05   808   0.159E-02    0.139E-02
DAV:   6    -0.872642306208E+03    0.99181E-06   -0.77838E-06   808   0.594E-03
  58 F= -.87264231E+03 E0= -.87264231E+03  d E =-.696236E-02
       N       E                     dE             d eps       ncg     rms          rms(c)
DAV:   1    -0.872639493237E+03    0.28140E-02   -0.49942E+00   704   0.440E+00    0.426E-01
DAV:   2    -0.872648757910E+03   -0.92647E-02   -0.10457E-01   800   0.577E-01    0.209E-01
DAV:   3    -0.872648229499E+03    0.52841E-03   -0.19596E-03   840   0.937E-02    0.133E-01
DAV:   4    -0.872647880890E+03    0.34861E-03   -0.17472E-03   808   0.109E-01    0.420E-02
DAV:   5    -0.872647895294E+03   -0.14404E-04   -0.43753E-04   808   0.459E-02    0.404E-02
DAV:   6    -0.872647883515E+03    0.11779E-04   -0.10643E-04   808   0.230E-02    0.222E-02
DAV:   7    -0.872647878048E+03    0.54672E-05   -0.16573E-05   808   0.115E-02    0.914E-03
DAV:   8    -0.872647876430E+03    0.16173E-05   -0.74155E-06   792   0.106E-02    0.432E-03
DAV:   9    -0.872647876452E+03   -0.21355E-07   -0.53999E-06   768   0.738E-03
  59 F= -.87264788E+03 E0= -.87264788E+03  d E =-.557024E-02
       N       E                     dE             d eps       ncg     rms          rms(c)
DAV:   1    -0.872647643224E+03    0.23321E-03   -0.26284E-01   704   0.101E+00    0.969E-02
DAV:   2    -0.872648127704E+03   -0.48448E-03   -0.54860E-03   808   0.132E-01    0.480E-02
DAV:   3    -0.872648098351E+03    0.29353E-04   -0.10206E-04   840   0.216E-02    0.306E-02
DAV:   4    -0.872648078039E+03    0.20311E-04   -0.92844E-05   824   0.261E-02    0.959E-03
DAV:   5    -0.872648078890E+03   -0.85028E-06   -0.25950E-05   784   0.113E-02    0.958E-03
DAV:   6    -0.872648078205E+03    0.68429E-06   -0.53625E-06   808   0.514E-03
  60 F= -.87264808E+03 E0= -.87264808E+03  d E =-.577200E-02
       N       E                     dE             d eps       ncg     rms          rms(c)
DAV:   1    -0.872644570745E+03    0.35081E-02   -0.49102E+00   704   0.439E+00    0.449E-01
DAV:   2    -0.872653557756E+03   -0.89870E-02   -0.10196E-01   808   0.575E-01    0.211E-01
DAV:   3    -0.872652956051E+03    0.60171E-03   -0.18565E-03   840   0.950E-02    0.133E-01
DAV:   4    -0.872652585030E+03    0.37102E-03   -0.19198E-03   808   0.118E-01    0.407E-02
DAV:   5    -0.872652607234E+03   -0.22204E-04   -0.51497E-04   808   0.479E-02    0.427E-02
DAV:   6    -0.872652596331E+03    0.10903E-04   -0.71414E-05   808   0.180E-02    0.272E-02
DAV:   7    -0.872652589481E+03    0.68498E-05   -0.22806E-05   784   0.122E-02    0.107E-02
DAV:   8    -0.872652589061E+03    0.42003E-06   -0.10426E-05   832   0.100E-02    0.414E-03
DAV:   9    -0.872652590248E+03   -0.11869E-05   -0.50218E-06   792   0.636E-03    0.406E-03
DAV:  10    -0.872652590749E+03   -0.50065E-06   -0.10690E-06   520   0.253E-03
  61 F= -.87265259E+03 E0= -.87265259E+03  d E =-.451254E-02
       N       E                     dE             d eps       ncg     rms          rms(c)
DAV:   1    -0.872652555831E+03    0.34417E-04   -0.44937E-02   720   0.420E-01    0.427E-02
DAV:   2    -0.872652636951E+03   -0.81119E-04   -0.92990E-04   800   0.551E-02    0.203E-02
DAV:   3    -0.872652631338E+03    0.56133E-05   -0.17952E-05   824   0.928E-03    0.128E-02
DAV:   4    -0.872652627859E+03    0.34787E-05   -0.16422E-05   792   0.111E-02    0.386E-03
DAV:   5    -0.872652628207E+03   -0.34855E-06   -0.48086E-06   752   0.476E-03
  62 F= -.87265263E+03 E0= -.87265263E+03  d E =-.455000E-02
       N       E                     dE             d eps       ncg     rms          rms(c)
DAV:   1    -0.872651520494E+03    0.11074E-02   -0.23989E+00   704   0.308E+00    0.337E-01
DAV:   2    -0.872655946539E+03   -0.44260E-02   -0.50811E-02   816   0.410E-01    0.156E-01
DAV:   3    -0.872655628929E+03    0.31761E-03   -0.96322E-04   816   0.699E-02    0.970E-02
DAV:   4    -0.872655453130E+03    0.17580E-03   -0.98574E-04   808   0.819E-02    0.306E-02
DAV:   5    -0.872655459288E+03   -0.61587E-05   -0.23719E-04   824   0.341E-02    0.300E-02
DAV:   6    -0.872655453786E+03    0.55027E-05   -0.51767E-05   808   0.159E-02    0.168E-02
DAV:   7    -0.872655451318E+03    0.24674E-05   -0.76816E-06   792   0.810E-03    0.763E-03
DAV:   8    -0.872655450805E+03    0.51309E-06   -0.35608E-06   656   0.788E-03
  63 F= -.87265545E+03 E0= -.87265545E+03  d E =-.282260E-02
       N       E                     dE             d eps       ncg     rms          rms(c)
DAV:   1    -0.872655439382E+03    0.11936E-04   -0.19072E-02   720   0.275E-01    0.296E-02
DAV:   2    -0.872655474435E+03   -0.35053E-04   -0.40281E-04   816   0.365E-02    0.140E-02
DAV:   3    -0.872655471764E+03    0.26708E-05   -0.74351E-06   800   0.612E-03    0.873E-03
DAV:   4    -0.872655470284E+03    0.14801E-05   -0.75020E-06   752   0.755E-03    0.262E-03
DAV:   5    -0.872655470428E+03   -0.14424E-06   -0.21495E-06   552   0.346E-03
  64 F= -.87265547E+03 E0= -.87265547E+03  d E =-.284222E-02
       N       E                     dE             d eps       ncg     rms          rms(c)
DAV:   1    -0.872654964777E+03    0.50551E-03   -0.16112E+00   704   0.253E+00    0.271E-01
DAV:   2    -0.872657906410E+03   -0.29416E-02   -0.33632E-02   800   0.334E-01    0.125E-01
DAV:   3    -0.872657699830E+03    0.20658E-03   -0.65279E-04   824   0.570E-02    0.780E-02
DAV:   4    -0.872657576258E+03    0.12357E-03   -0.58762E-04   808   0.668E-02    0.232E-02
DAV:   5    -0.872657582922E+03   -0.66632E-05   -0.17147E-04   808   0.285E-02    0.251E-02
DAV:   6    -0.872657579080E+03    0.38420E-05   -0.25370E-05   808   0.109E-02    0.163E-02
DAV:   7    -0.872657575879E+03    0.32004E-05   -0.57072E-06   776   0.719E-03    0.721E-03
DAV:   8    -0.872657574907E+03    0.97250E-06   -0.34618E-06   656   0.780E-03
  65 F= -.87265757E+03 E0= -.87265757E+03  d E =-.210448E-02
       N       E                     dE             d eps       ncg     rms          rms(c)
DAV:   1    -0.872657556336E+03    0.19543E-04   -0.33587E-02   720   0.366E-01    0.385E-02
DAV:   2    -0.872657617549E+03   -0.61213E-04   -0.70122E-04   800   0.482E-02    0.181E-02
DAV:   3    -0.872657612852E+03    0.46978E-05   -0.13214E-05   824   0.812E-03    0.113E-02
DAV:   4    -0.872657609809E+03    0.30431E-05   -0.12139E-05   776   0.100E-02    0.334E-03
DAV:   5    -0.872657610006E+03   -0.19751E-06   -0.41172E-06   680   0.465E-03
  66 F= -.87265761E+03 E0= -.87265761E+03  d E =-.213958E-02
       N       E                     dE             d eps       ncg     rms          rms(c)
DAV:   1    -0.872657362892E+03    0.24692E-03   -0.14851E+00   704   0.242E+00    0.239E-01
DAV:   2    -0.872660077255E+03   -0.27144E-02   -0.30751E-02   800   0.318E-01    0.119E-01
DAV:   3    -0.872659910204E+03    0.16705E-03   -0.57118E-04   832   0.514E-02    0.752E-02
DAV:   4    -0.872659807066E+03    0.10314E-03   -0.57360E-04   808   0.641E-02    0.239E-02
DAV:   5    -0.872659811871E+03   -0.48049E-05   -0.14269E-04   800   0.259E-02    0.238E-02
DAV:   6    -0.872659808252E+03    0.36189E-05   -0.29200E-05   808   0.118E-02    0.136E-02
DAV:   7    -0.872659806771E+03    0.14817E-05   -0.68857E-06   776   0.663E-03    0.522E-03
DAV:   8    -0.872659806896E+03   -0.12528E-06   -0.25573E-06   552   0.515E-03
  67 F= -.87265981E+03 E0= -.87265981E+03  d E =-.219689E-02
       N       E                     dE             d eps       ncg     rms          rms(c)
DAV:   1    -0.872659106265E+03    0.70051E-03   -0.69181E-01   704   0.165E+00    0.163E-01
DAV:   2    -0.872660369229E+03   -0.12630E-02   -0.14292E-02   800   0.217E-01    0.811E-02
DAV:   3    -0.872660289265E+03    0.79964E-04   -0.26158E-04   832   0.350E-02    0.514E-02
DAV:   4    -0.872660239212E+03    0.50053E-04   -0.26812E-04   808   0.442E-02    0.161E-02
DAV:   5    -0.872660241673E+03   -0.24612E-05   -0.69617E-05   800   0.181E-02    0.162E-02
DAV:   6    -0.872660240050E+03    0.16228E-05   -0.12847E-05   808   0.775E-03    0.955E-03
DAV:   7    -0.872660239290E+03    0.76072E-06   -0.28651E-06   560   0.476E-03
  68 F= -.87266024E+03 E0= -.87266024E+03  d E =-.262928E-02
       N       E                     dE             d eps       ncg     rms          rms(c)
DAV:   1    -0.872660072626E+03    0.16742E-03   -0.12471E+00   704   0.222E+00    0.216E-01
DAV:   2    -0.872662400562E+03   -0.23279E-02   -0.26168E-02   792   0.292E-01    0.109E-01
DAV:   3    -0.872662267680E+03    0.13288E-03   -0.47542E-04   824   0.473E-02    0.694E-02
DAV:   4    -0.872662185008E+03    0.82672E-04   -0.49793E-04   808   0.605E-02    0.230E-02
DAV:   5    -0.872662188700E+03   -0.36919E-05   -0.12437E-04   808   0.242E-02    0.230E-02
DAV:   6    -0.872662184969E+03    0.37315E-05   -0.25563E-05   808   0.110E-02    0.133E-02
DAV:   7    -0.872662182924E+03    0.20443E-05   -0.70387E-06   800   0.695E-03    0.499E-03
DAV:   8    -0.872662182691E+03    0.23285E-06   -0.25881E-06   560   0.544E-03
  69 F= -.87266218E+03 E0= -.87266218E+03  d E =-.194340E-02
       N       E                     dE             d eps       ncg     rms          rms(c)
DAV:   1    -0.872660625370E+03    0.15576E-02   -0.12558E+00   704   0.223E+00    0.216E-01
DAV:   2    -0.872662964109E+03   -0.23387E-02   -0.26328E-02   792   0.293E-01    0.109E-01
DAV:   3    -0.872662828125E+03    0.13598E-03   -0.47939E-04   824   0.475E-02    0.698E-02
DAV:   4    -0.872662741462E+03    0.86662E-04   -0.49653E-04   824   0.607E-02    0.230E-02
DAV:   5    -0.872662745221E+03   -0.37591E-05   -0.12814E-04   800   0.247E-02    0.231E-02
DAV:   6    -0.872662741401E+03    0.38206E-05   -0.25384E-05   816   0.110E-02    0.136E-02
DAV:   7    -0.872662739082E+03    0.23183E-05   -0.71581E-06   784   0.733E-03    0.506E-03
DAV:   8    -0.872662738785E+03    0.29733E-06   -0.29163E-06   584   0.610E-03
  70 F= -.87266274E+03 E0= -.87266274E+03  d E =-.249950E-02
       N       E                     dE             d eps       ncg     rms          rms(c)
DAV:   1    -0.872661632864E+03    0.11062E-02   -0.16603E+00   704   0.256E+00    0.251E-01
DAV:   2    -0.872664769630E+03   -0.31368E-02   -0.35054E-02   792   0.337E-01    0.125E-01
DAV:   3    -0.872664589702E+03    0.17993E-03   -0.62969E-04   816   0.545E-02    0.795E-02
DAV:   4    -0.872664475110E+03    0.11459E-03   -0.62575E-04   808   0.688E-02    0.250E-02
DAV:   5    -0.872664481382E+03   -0.62726E-05   -0.16625E-04   808   0.277E-02    0.257E-02
DAV:   6    -0.872664476971E+03    0.44114E-05   -0.29501E-05   808   0.117E-02    0.155E-02
DAV:   7    -0.872664474378E+03    0.25925E-05   -0.84133E-06   800   0.755E-03    0.590E-03
DAV:   8    -0.872664474134E+03    0.24389E-06   -0.35215E-06   664   0.606E-03
  71 F= -.87266447E+03 E0= -.87266447E+03  d E =-.173535E-02
       N       E                     dE             d eps       ncg     rms          rms(c)
DAV:   1    -0.872664074772E+03    0.39961E-03   -0.37310E-01   704   0.121E+00    0.119E-01
DAV:   2    -0.872664778865E+03   -0.70409E-03   -0.78751E-03   792   0.160E-01    0.594E-02
DAV:   3    -0.872664737035E+03    0.41830E-04   -0.14020E-04   832   0.258E-02    0.377E-02
DAV:   4    -0.872664709721E+03    0.27314E-04   -0.14134E-04   808   0.331E-02    0.119E-02
DAV:   5    -0.872664711209E+03   -0.14880E-05   -0.39740E-05   808   0.136E-02    0.124E-02
DAV:   6    -0.872664710197E+03    0.10112E-05   -0.65016E-06   800   0.551E-03    0.767E-03
DAV:   7    -0.872664709509E+03    0.68798E-06   -0.17271E-06   504   0.403E-03
  72 F= -.87266471E+03 E0= -.87266471E+03  d E =-.197072E-02
       N       E                     dE             d eps       ncg     rms          rms(c)
DAV:   1    -0.872664783769E+03   -0.73572E-04   -0.94457E-01   704   0.193E+00    0.197E-01
DAV:   2    -0.872666543842E+03   -0.17601E-02   -0.19707E-02   800   0.252E-01    0.952E-02
DAV:   3    -0.872666435171E+03    0.10867E-03   -0.35619E-04   824   0.407E-02    0.595E-02
DAV:   4    -0.872666372867E+03    0.62304E-04   -0.34387E-04   808   0.494E-02    0.177E-02
DAV:   5    -0.872666376520E+03   -0.36528E-05   -0.87508E-05   800   0.200E-02    0.178E-02
DAV:   6    -0.872666374701E+03    0.18193E-05   -0.16397E-05   808   0.872E-03    0.102E-02
DAV:   7    -0.872666373851E+03    0.84924E-06   -0.28096E-06   600   0.437E-03
  73 F= -.87266637E+03 E0= -.87266637E+03  d E =-.166434E-02
       N       E                     dE             d eps       ncg     rms          rms(c)
DAV:   1    -0.872664734324E+03    0.16404E-02   -0.12775E+00   704   0.224E+00    0.229E-01
DAV:   2    -0.872667115110E+03   -0.23808E-02   -0.26687E-02   800   0.293E-01    0.111E-01
DAV:   3    -0.872666966718E+03    0.14839E-03   -0.48438E-04   824   0.476E-02    0.692E-02
DAV:   4    -0.872666880347E+03    0.86371E-04   -0.46400E-04   808   0.576E-02    0.207E-02
DAV:   5    -0.872666885229E+03   -0.48821E-05   -0.12013E-04   800   0.235E-02    0.208E-02
DAV:   6    -0.872666882733E+03    0.24954E-05   -0.22280E-05   816   0.102E-02    0.121E-02
DAV:   7    -0.872666881604E+03    0.11293E-05   -0.38516E-06   648   0.520E-03    0.534E-03
DAV:   8    -0.872666881669E+03   -0.64858E-07   -0.23290E-06   552   0.499E-03
  74 F= -.87266688E+03 E0= -.87266688E+03  d E =-.217216E-02
       N       E                     dE             d eps       ncg     rms          rms(c)
DAV:   1    -0.872667059527E+03   -0.17792E-03   -0.46708E-01   704   0.135E+00    0.129E-01
DAV:   2    -0.872667926534E+03   -0.86701E-03   -0.96472E-03   800   0.176E-01    0.657E-02
DAV:   3    -0.872667879226E+03    0.47307E-04   -0.17431E-04   816   0.280E-02    0.417E-02
DAV:   4    -0.872667849274E+03    0.29952E-04   -0.15885E-04   808   0.341E-02    0.125E-02
DAV:   5    -0.872667851258E+03   -0.19837E-05   -0.43040E-05   800   0.140E-02    0.125E-02
DAV:   6    -0.872667850215E+03    0.10429E-05   -0.80999E-06   800   0.618E-03    0.722E-03
DAV:   7    -0.872667849719E+03    0.49588E-06   -0.13900E-06   536   0.323E-03
  75 F= -.87266785E+03 E0= -.87266785E+03  d E =-.968050E-03
       N       E                     dE             d eps       ncg     rms          rms(c)
DAV:   1    -0.872665594472E+03    0.22557E-02   -0.17539E+00   704   0.262E+00    0.250E-01
DAV:   2    -0.872668852639E+03   -0.32582E-02   -0.36312E-02   800   0.341E-01    0.127E-01
DAV:   3    -0.872668673263E+03    0.17938E-03   -0.65812E-04   832   0.546E-02    0.809E-02
DAV:   4    -0.872668557963E+03    0.11530E-03   -0.60704E-04   808   0.669E-02    0.248E-02
DAV:   5    -0.872668564788E+03   -0.68247E-05   -0.16597E-04   800   0.277E-02    0.248E-02
DAV:   6    -0.872668560472E+03    0.43164E-05   -0.31484E-05   808   0.122E-02    0.144E-02
DAV:   7    -0.872668558222E+03    0.22496E-05   -0.63738E-06   792   0.676E-03    0.564E-03
DAV:   8    -0.872668557903E+03    0.31873E-06   -0.32580E-06   672   0.654E-03
  76 F= -.87266856E+03 E0= -.87266856E+03  d E =-.167623E-02
       N       E                     dE             d eps       ncg     rms          rms(c)
DAV:   1    -0.872669196008E+03   -0.63779E-03   -0.16546E-01   704   0.807E-01    0.916E-02
DAV:   2    -0.872669517277E+03   -0.32127E-03   -0.36458E-03   808   0.109E-01    0.448E-02
DAV:   3    -0.872669493683E+03    0.23594E-04   -0.70180E-05   816   0.192E-02    0.279E-02
DAV:   4    -0.872669483475E+03    0.10208E-04   -0.92929E-05   800   0.241E-02    0.105E-02
DAV:   5    -0.872669482970E+03    0.50462E-06   -0.16898E-05   808   0.963E-03    0.935E-03
DAV:   6    -0.872669482415E+03    0.55552E-06   -0.60833E-06   728   0.556E-03
  77 F= -.87266948E+03 E0= -.87266948E+03  d E =-.924511E-03
       N       E                     dE             d eps       ncg     rms          rms(c)
DAV:   1    -0.872669604235E+03   -0.12126E-03   -0.27955E-01   704   0.105E+00    0.121E-01
DAV:   2    -0.872670150344E+03   -0.54611E-03   -0.62262E-03   808   0.143E-01    0.584E-02
DAV:   3    -0.872670109760E+03    0.40584E-04   -0.12098E-04   824   0.254E-02    0.364E-02
DAV:   4    -0.872670092013E+03    0.17747E-04   -0.16229E-04   808   0.319E-02    0.141E-02
DAV:   5    -0.872670090984E+03    0.10289E-05   -0.29534E-05   800   0.128E-02    0.125E-02
DAV:   6    -0.872670089924E+03    0.10602E-05   -0.10765E-05   800   0.739E-03    0.588E-03
DAV:   7    -0.872670089751E+03    0.17328E-06   -0.19334E-06   552   0.383E-03
  78 F= -.87267009E+03 E0= -.87267009E+03  d E =-.153185E-02
       N       E                     dE             d eps       ncg     rms          rms(c)
DAV:   1    -0.872670050508E+03    0.39417E-04   -0.52166E-02   720   0.453E-01    0.514E-02
DAV:   2    -0.872670153248E+03   -0.10274E-03   -0.11636E-03   808   0.615E-02    0.253E-02
DAV:   3    -0.872670145303E+03    0.79456E-05   -0.22099E-05   824   0.110E-02    0.157E-02
DAV:   4    -0.872670141910E+03    0.33932E-05   -0.31000E-05   808   0.139E-02    0.613E-03
DAV:   5    -0.872670141742E+03    0.16737E-06   -0.57185E-06   776   0.566E-03
  79 F= -.87267014E+03 E0= -.87267014E+03  d E =-.158384E-02
       N       E                     dE             d eps       ncg     rms          rms(c)
DAV:   1    -0.872670608871E+03   -0.46696E-03   -0.30008E-01   704   0.108E+00    0.121E-01
DAV:   2    -0.872671161917E+03   -0.55305E-03   -0.64121E-03   808   0.145E-01    0.575E-02
DAV:   3    -0.872671120097E+03    0.41820E-04   -0.13128E-04   832   0.259E-02    0.359E-02
DAV:   4    -0.872671098489E+03    0.21608E-04   -0.14370E-04   808   0.319E-02    0.127E-02
DAV:   5    -0.872671098848E+03   -0.35945E-06   -0.34061E-05   808   0.131E-02    0.124E-02
DAV:   6    -0.872671097760E+03    0.10877E-05   -0.77168E-06   800   0.614E-03    0.712E-03
DAV:   7    -0.872671097146E+03    0.61455E-06   -0.14127E-06   536   0.406E-03
  80 F= -.87267110E+03 E0= -.87267110E+03  d E =-.955404E-03
       N       E                     dE             d eps       ncg     rms          rms(c)
DAV:   1    -0.872670896398E+03    0.20136E-03   -0.32514E-01   704   0.113E+00    0.125E-01
DAV:   2    -0.872671494767E+03   -0.59837E-03   -0.69296E-03   816   0.151E-01    0.599E-02
DAV:   3    -0.872671447243E+03    0.47524E-04   -0.14033E-04   832   0.272E-02    0.374E-02
DAV:   4    -0.872671421414E+03    0.25829E-04   -0.15589E-04   816   0.337E-02    0.132E-02
DAV:   5    -0.872671421778E+03   -0.36397E-06   -0.39379E-05   808   0.142E-02    0.130E-02
DAV:   6    -0.872671420538E+03    0.12404E-05   -0.81232E-06   808   0.628E-03    0.772E-03
DAV:   7    -0.872671419652E+03    0.88593E-06   -0.14452E-06   512   0.462E-03
  81 F= -.87267142E+03 E0= -.87267142E+03  d E =-.127791E-02
       N       E                     dE             d eps       ncg     rms          rms(c)
DAV:   1    -0.872671683891E+03   -0.26335E-03   -0.42050E-01   704   0.129E+00    0.128E-01
DAV:   2    -0.872672477703E+03   -0.79381E-03   -0.90175E-03   824   0.171E-01    0.660E-02
DAV:   3    -0.872672423871E+03    0.53832E-04   -0.16334E-04   816   0.284E-02    0.421E-02
DAV:   4    -0.872672392456E+03    0.31415E-04   -0.20142E-04   808   0.370E-02    0.149E-02
DAV:   5    -0.872672392771E+03   -0.31541E-06   -0.46576E-05   808   0.151E-02    0.142E-02
DAV:   6    -0.872672391367E+03    0.14047E-05   -0.10722E-05   808   0.708E-03    0.790E-03
DAV:   7    -0.872672390733E+03    0.63403E-06   -0.22199E-06   544   0.410E-03
  82 F= -.87267239E+03 E0= -.87267239E+03  d E =-.971081E-03
