<?xml version="1.0" encoding="ISO-8859-1"?>
<modeling>
 <generator>
  <i name="program" type="string">vasp </i>
  <i name="version" type="string">5.4.1  </i>
  <i name="subversion" type="string">05Feb16 (build Feb 08 2018 09:21:51) complex                          parallel </i>
  <i name="platform" type="string">LinuxIFC </i>
  <i name="date" type="string">2019 10 17 </i>
  <i name="time" type="string">10:04:14 </i>
 </generator>
 <incar>
  <i type="string" name="PREC">normal</i>
  <i type="int" name="IBRION">     2</i>
  <i name="EDIFF">      0.00000100</i>
  <i name="EDIFFG">     -0.05000000</i>
  <i type="int" name="NSW">   500</i>
  <i name="ENCUT">    400.00000000</i>
  <i type="string" name="LREAL"> A</i>
  <i type="int" name="ISMEAR">     0</i>
  <i name="SIGMA">      0.10000000</i>
  <i type="logical" name="LWAVE"> F  </i>
  <i type="logical" name="LCHARG"> F  </i>
  <v type="int" name="KPOINT_BSE">    -1     0     0     0</v>
 </incar>
 <kpoints>
  <generation param="Monkhorst-Pack">
   <v type="int" name="divisions">       1        1        1 </v>
   <v name="usershift">      0.00000000       0.00000000       0.00000000 </v>
   <v name="genvec1">      1.00000000      -0.00000000       0.00000000 </v>
   <v name="genvec2">      0.00000000       1.00000000      -0.00000000 </v>
   <v name="genvec3">     -0.00000000       0.00000000       1.00000000 </v>
   <v name="shift">      0.00000000       0.00000000       0.00000000 </v>
  </generation>
  <varray name="kpointlist" >
   <v>       0.00000000       0.00000000       0.00000000 </v>
  </varray>
  <varray name="weights" >
   <v>       1.00000000 </v>
  </varray>
 </kpoints>
 <parameters>
  <separator name="general" >
   <i type="string" name="SYSTEM">unknown system</i>
   <i type="logical" name="LCOMPAT"> F  </i>
  </separator>
  <separator name="electronic" >
   <i type="string" name="PREC">normal</i>
   <i name="ENMAX">    400.00000000</i>
   <i name="ENAUG">    644.87300000</i>
   <i name="EDIFF">      0.00000100</i>
   <i type="int" name="IALGO">    38</i>
   <i type="int" name="IWAVPR">    11</i>
   <i type="int" name="NBANDS">   352</i>
   <i name="NELECT">    582.00000000</i>
   <i type="int" name="TURBO">     0</i>
   <i type="int" name="IRESTART">     0</i>
   <i type="int" name="NREBOOT">     0</i>
   <i type="int" name="NMIN">     0</i>
   <i name="EREF">      0.00000000</i>
   <separator name="electronic smearing" >
    <i type="int" name="ISMEAR">     0</i>
    <i name="SIGMA">      0.10000000</i>
    <i name="KSPACING">      0.50000000</i>
    <i type="logical" name="KGAMMA"> T  </i>
   </separator>
   <separator name="electronic projectors" >
    <i type="logical" name="LREAL"> T  </i>
    <v name="ROPT">     -0.00050000     -0.00050000     -0.00050000     -0.00050000     -0.00050000</v>
    <i type="int" name="LMAXPAW">  -100</i>
    <i type="int" name="LMAXMIX">     2</i>
    <i type="logical" name="NLSPLINE"> F  </i>
   </separator>
   <separator name="electronic startup" >
    <i type="int" name="ISTART">     0</i>
    <i type="int" name="ICHARG">     2</i>
    <i type="int" name="INIWAV">     1</i>
   </separator>
   <separator name="electronic spin" >
    <i type="int" name="ISPIN">     1</i>
    <i type="logical" name="LNONCOLLINEAR"> F  </i>
    <v name="MAGMOM">      1.00000000      1.00000000      1.00000000      1.00000000      1.00000000      1.00000000      1.00000000      1.00000000      1.00000000      1.00000000      1.00000000      1.00000000      1.00000000      1.00000000      1.00000000      1.00000000      1.00000000      1.00000000      1.00000000      1.00000000
      1.00000000      1.00000000      1.00000000      1.00000000      1.00000000      1.00000000      1.00000000      1.00000000      1.00000000      1.00000000      1.00000000      1.00000000      1.00000000      1.00000000      1.00000000      1.00000000      1.00000000      1.00000000      1.00000000      1.00000000
      1.00000000      1.00000000      1.00000000      1.00000000      1.00000000      1.00000000      1.00000000      1.00000000      1.00000000      1.00000000      1.00000000      1.00000000      1.00000000      1.00000000      1.00000000      1.00000000      1.00000000      1.00000000      1.00000000      1.00000000
      1.00000000      1.00000000      1.00000000      1.00000000      1.00000000      1.00000000      1.00000000      1.00000000      1.00000000      1.00000000      1.00000000      1.00000000      1.00000000      1.00000000      1.00000000      1.00000000      1.00000000      1.00000000      1.00000000      1.00000000
      1.00000000      1.00000000      1.00000000      1.00000000      1.00000000      1.00000000      1.00000000      1.00000000      1.00000000      1.00000000      1.00000000      1.00000000      1.00000000      1.00000000      1.00000000      1.00000000      1.00000000      1.00000000      1.00000000      1.00000000
      1.00000000      1.00000000      1.00000000      1.00000000      1.00000000      1.00000000      1.00000000      1.00000000      1.00000000      1.00000000      1.00000000      1.00000000</v>
    <i name="NUPDOWN">     -1.00000000</i>
    <i type="logical" name="LSORBIT"> F  </i>
    <v name="SAXIS">      0.00000000      0.00000000      1.00000000</v>
    <i type="logical" name="LSPIRAL"> F  </i>
    <v name="QSPIRAL">      0.00000000      0.00000000      0.00000000</v>
    <i type="logical" name="LZEROZ"> F  </i>
   </separator>
   <separator name="electronic exchange-correlation" >
    <i type="logical" name="LASPH"> F  </i>
    <i type="logical" name="LMETAGGA"> F  </i>
   </separator>
   <separator name="electronic convergence" >
    <i type="int" name="NELM">    60</i>
    <i type="int" name="NELMDL">    -5</i>
    <i type="int" name="NELMIN">     2</i>
    <i name="ENINI">    400.00000000</i>
    <separator name="electronic convergence detail" >
     <i type="logical" name="LDIAG"> T  </i>
     <i type="logical" name="LSUBROT"> F  </i>
     <i name="WEIMIN">      0.00100000</i>
     <i name="EBREAK">      0.00000000</i>
     <i name="DEPER">      0.30000000</i>
     <i type="int" name="NRMM">     4</i>
     <i name="TIME">      0.40000000</i>
    </separator>
   </separator>
   <separator name="electronic mixer" >
    <i name="AMIX">      0.40000000</i>
    <i name="BMIX">      1.00000000</i>
    <i name="AMIN">      0.10000000</i>
    <i name="AMIX_MAG">      1.60000000</i>
    <i name="BMIX_MAG">      1.00000000</i>
    <separator name="electronic mixer details" >
     <i type="int" name="IMIX">     4</i>
     <i type="logical" name="MIXFIRST"> F  </i>
     <i type="int" name="MAXMIX">   -45</i>
     <i name="WC">    100.00000000</i>
     <i type="int" name="INIMIX">     1</i>
     <i type="int" name="MIXPRE">     1</i>
     <i type="int" name="MREMOVE">     5</i>
    </separator>
   </separator>
   <separator name="electronic dipolcorrection" >
    <i type="logical" name="LDIPOL"> F  </i>
    <i type="logical" name="LMONO"> F  </i>
    <i type="int" name="IDIPOL">     0</i>
    <i name="EPSILON">      1.00000000</i>
    <v name="DIPOL">   -100.00000000   -100.00000000   -100.00000000</v>
    <i name="EFIELD">      0.00000000</i>
   </separator>
  </separator>
  <separator name="grids" >
   <i type="int" name="NGX">    70</i>
   <i type="int" name="NGY">    70</i>
   <i type="int" name="NGZ">    80</i>
   <i type="int" name="NGXF">   140</i>
   <i type="int" name="NGYF">   140</i>
   <i type="int" name="NGZF">   160</i>
   <i type="logical" name="ADDGRID"> F  </i>
  </separator>
  <separator name="ionic" >
   <i type="int" name="NSW">   500</i>
   <i type="int" name="IBRION">     2</i>
   <i type="int" name="ISIF">     2</i>
   <i name="PSTRESS">      0.00000000</i>
   <i name="EDIFFG">     -0.05000000</i>
   <i type="int" name="NFREE">     1</i>
   <i name="POTIM">      0.50000000</i>
   <i name="SMASS">     -3.00000000</i>
   <i name="SCALEE">      1.00000000</i>
  </separator>
  <separator name="ionic md" >
   <i name="TEBEG">      0.00010000</i>
   <i name="TEEND">      0.00010000</i>
   <i type="int" name="NBLOCK">     1</i>
   <i type="int" name="KBLOCK">   500</i>
   <i type="int" name="NPACO">   256</i>
   <i name="APACO">     16.00000000</i>
  </separator>
  <separator name="symmetry" >
   <i type="int" name="ISYM">     2</i>
   <i name="SYMPREC">      0.00001000</i>
  </separator>
  <separator name="dos" >
   <i type="logical" name="LORBIT"> F  </i>
   <v name="RWIGS">     -1.00000000     -1.00000000     -1.00000000     -1.00000000     -1.00000000</v>
   <i type="int" name="NEDOS">   301</i>
   <i name="EMIN">     10.00000000</i>
   <i name="EMAX">    -10.00000000</i>
   <i name="EFERMI">      0.00000000</i>
  </separator>
  <separator name="writing" >
   <i type="int" name="NWRITE">     2</i>
   <i type="logical" name="LWAVE"> F  </i>
   <i type="logical" name="LCHARG"> F  </i>
   <i type="logical" name="LPARD"> F  </i>
   <i type="logical" name="LVTOT"> F  </i>
   <i type="logical" name="LVHAR"> F  </i>
   <i type="logical" name="LELF"> F  </i>
   <i type="logical" name="LOPTICS"> F  </i>
   <v name="STM">      0.00000000      0.00000000      0.00000000      0.00000000      0.00000000      0.00000000      0.00000000</v>
  </separator>
  <separator name="performance" >
   <i type="int" name="NPAR">     8</i>
   <i type="int" name="NSIM">     4</i>
   <i type="int" name="NBLK">    -1</i>
   <i type="logical" name="LPLANE"> T  </i>
   <i type="logical" name="LSCALAPACK"> F  </i>
   <i type="logical" name="LSCAAWARE"> F  </i>
   <i type="logical" name="LSCALU"> F  </i>
   <i type="logical" name="LASYNC"> F  </i>
   <i type="logical" name="LORBITALREAL"> F  </i>
  </separator>
  <separator name="miscellaneous" >
   <i type="int" name="IDIOT">     3</i>
   <i type="logical" name="LMUSIC"> F  </i>
   <v name="POMASS">     26.98100000     12.01100000      1.00000000     16.00000000     28.08500000</v>
   <v name="DARWINR">      0.00000000      0.00000000      0.00000000      0.00000000      0.00000000</v>
   <v name="DARWINV">      1.00000000      1.00000000      1.00000000      1.00000000      1.00000000</v>
   <i type="logical" name="LCORR"> T  </i>
  </separator>
  <i type="logical" name="GGA_COMPAT"> T  </i>
  <i type="logical" name="LBERRY"> F  </i>
  <i type="int" name="ICORELEVEL">     0</i>
  <i type="logical" name="LDAU"> F  </i>
  <i type="int" name="I_CONSTRAINED_M">     0</i>
  <separator name="electronic exchange-correlation" >
   <i type="string" name="GGA">--</i>
   <i type="int" name="VOSKOWN">     0</i>
   <i type="logical" name="LHFCALC"> F  </i>
   <i type="string" name="PRECFOCK"></i>
   <i type="logical" name="LSYMGRAD"> F  </i>
   <i type="logical" name="LHFONE"> F  </i>
   <i type="logical" name="LRHFCALC"> F  </i>
   <i type="logical" name="LTHOMAS"> F  </i>
   <i type="logical" name="LMODELHF"> F  </i>
   <i name="ENCUT4O">     -1.00000000</i>
   <i type="int" name="EXXOEP">     0</i>
   <i type="int" name="FOURORBIT">     0</i>
   <i name="AEXX">      0.00000000</i>
   <i name="HFALPHA">      0.00000000</i>
   <i name="MCALPHA">      0.00000000</i>
   <i name="ALDAX">      1.00000000</i>
   <i name="AGGAX">      1.00000000</i>
   <i name="ALDAC">      1.00000000</i>
   <i name="AGGAC">      1.00000000</i>
   <i type="int" name="NKREDX">     1</i>
   <i type="int" name="NKREDY">     1</i>
   <i type="int" name="NKREDZ">     1</i>
   <i type="logical" name="SHIFTRED"> F  </i>
   <i type="logical" name="ODDONLY"> F  </i>
   <i type="logical" name="EVENONLY"> F  </i>
   <i type="int" name="LMAXFOCK">     0</i>
   <i type="int" name="NMAXFOCKAE">     0</i>
   <i type="logical" name="LFOCKAEDFT"> F  </i>
   <i name="HFSCREEN">      0.00000000</i>
   <i name="HFSCREENC">      0.00000000</i>
   <i type="int" name="NBANDSGWLOW">     0</i>
  </separator>
  <separator name="vdW DFT" >
   <i type="logical" name="LUSE_VDW"> F  </i>
   <i name="Zab_VDW">     -0.84910000</i>
   <i name="PARAM1">      0.12340000</i>
   <i name="PARAM2">      1.00000000</i>
   <i name="PARAM3">      0.00000000</i>
  </separator>
  <separator name="model GW" >
   <i type="int" name="MODEL_GW">     0</i>
   <i name="MODEL_EPS0">     13.02047138</i>
   <i name="MODEL_ALPHA">      1.00000000</i>
  </separator>
  <separator name="linear response parameters" >
   <i type="logical" name="LEPSILON"> F  </i>
   <i type="logical" name="LRPA"> F  </i>
   <i type="logical" name="LNABLA"> F  </i>
   <i type="logical" name="LVEL"> F  </i>
   <i type="int" name="KINTER">     0</i>
   <i name="CSHIFT">      0.10000000</i>
   <i name="OMEGAMAX">     -1.00000000</i>
   <i name="DEG_THRESHOLD">      0.00200000</i>
  </separator>
  <separator name="orbital magnetization" >
   <i type="logical" name="NUCIND"> F  </i>
   <v name="MAGPOS">      0.00000000      0.00000000      0.00000000</v>
   <i type="logical" name="LNICSALL"> T  </i>
   <i type="logical" name="ORBITALMAG"> F  </i>
   <i type="logical" name="LMAGBLOCH"> F  </i>
   <i type="logical" name="LCHIMAG"> F  </i>
   <i type="logical" name="LGAUGE"> T  </i>
   <i type="int" name="MAGATOM">     0</i>
   <v name="MAGDIPOL">      0.00000000      0.00000000      0.00000000</v>
   <v name="AVECCONST">      0.00000000      0.00000000      0.00000000</v>
  </separator>
  <separator name="response functions" >
   <i type="logical" name="LADDER"> F  </i>
   <i type="logical" name="LFXC"> F  </i>
   <i type="logical" name="LHARTREE"> T  </i>
   <i type="int" name="IBSE">     0</i>
   <v type="int" name="KPOINT">    -1     0     0     0</v>
   <i type="logical" name="LTCTE"> F  </i>
   <i type="logical" name="LTETE"> F  </i>
   <i type="logical" name="LTRIPLET"> F  </i>
   <i type="logical" name="LFXCEPS"> F  </i>
   <i type="logical" name="LFXHEG"> F  </i>
   <i type="int" name="NATURALO">     0</i>
   <i type="logical" name="L2ORDER"> F  </i>
   <i type="logical" name="LUSEW"> F  </i>
   <i name="ENCUTGW">     -2.00000000</i>
   <i name="ENCUTGWSOFT">     -2.00000000</i>
   <i name="ENCUTLF">     -1.00000000</i>
   <i type="int" name="LMAXMP2">    -1</i>
   <i name="SCISSOR">      0.00000000</i>
   <i type="int" name="NOMEGA">     0</i>
   <i type="int" name="NOMEGAR">     0</i>
   <i type="int" name="NBANDSGW">    -1</i>
   <i type="int" name="NBANDSO">    -1</i>
   <i type="int" name="NBANDSV">    -1</i>
   <i type="int" name="NELM">     1</i>
   <i type="int" name="NELMHF">     1</i>
   <i type="int" name="DIM">     3</i>
   <i type="int" name="ANTIRES">     0</i>
   <i name="OMEGAMAX">    -30.00000000</i>
   <i name="OMEGAMIN">    -30.00000000</i>
   <i name="OMEGATL">   -200.00000000</i>
   <i type="int" name="OMEGAGRID">     0</i>
   <i name="CSHIFT">     -0.10000000</i>
   <i type="logical" name="SELFENERGY"> F  </i>
   <i type="logical" name="LSPECTRAL"> F  </i>
   <i type="logical" name="LSPECTRALGW"> F  </i>
   <i type="logical" name="LSINGLES"> F  </i>
   <i type="logical" name="LFERMIGW"> F  </i>
   <i type="logical" name="ODDONLYGW"> F  </i>
   <i type="logical" name="EVENONLYGW"> F  </i>
   <i type="int" name="NKREDLFX">     1</i>
   <i type="int" name="NKREDLFY">     1</i>
   <i type="int" name="NKREDLFZ">     1</i>
   <i type="int" name="MAXMEM">  1800</i>
   <i type="int" name="TELESCOPE">     0</i>
   <i type="int" name="TAUPAR">     1</i>
   <i type="int" name="OMEGAPAR">    -1</i>
   <i name="LAMBDA">      1.00000000</i>
  </separator>
  <separator name="External order field" >
   <i name="OFIELD_KAPPA">      0.00000000</i>
   <v name="OFIELD_K">      0.00000000      0.00000000      0.00000000</v>
   <i name="OFIELD_Q6_NEAR">      0.00000000</i>
   <i name="OFIELD_Q6_FAR">      0.00000000</i>
   <i name="OFIELD_A">      0.00000000</i>
  </separator>
 </parameters>
 <atominfo>
  <atoms>     112 </atoms>
  <types>       5 </types>
  <array name="atoms" >
   <dimension dim="1">ion</dimension>
   <field type="string">element</field>
   <field type="int">atomtype</field>
   <set>
    <rc><c>Al</c><c>   1</c></rc>
    <rc><c>C </c><c>   2</c></rc>
    <rc><c>H </c><c>   3</c></rc>
    <rc><c>H </c><c>   3</c></rc>
    <rc><c>H </c><c>   3</c></rc>
    <rc><c>O </c><c>   4</c></rc>
    <rc><c>O </c><c>   4</c></rc>
    <rc><c>O </c><c>   4</c></rc>
    <rc><c>O </c><c>   4</c></rc>
    <rc><c>O </c><c>   4</c></rc>
    <rc><c>O </c><c>   4</c></rc>
    <rc><c>O </c><c>   4</c></rc>
    <rc><c>O </c><c>   4</c></rc>
    <rc><c>O </c><c>   4</c></rc>
    <rc><c>O </c><c>   4</c></rc>
    <rc><c>O </c><c>   4</c></rc>
    <rc><c>O </c><c>   4</c></rc>
    <rc><c>O </c><c>   4</c></rc>
    <rc><c>O </c><c>   4</c></rc>
    <rc><c>O </c><c>   4</c></rc>
    <rc><c>O </c><c>   4</c></rc>
    <rc><c>O </c><c>   4</c></rc>
    <rc><c>O </c><c>   4</c></rc>
    <rc><c>O </c><c>   4</c></rc>
    <rc><c>O </c><c>   4</c></rc>
    <rc><c>O </c><c>   4</c></rc>
    <rc><c>O </c><c>   4</c></rc>
    <rc><c>O </c><c>   4</c></rc>
    <rc><c>O </c><c>   4</c></rc>
    <rc><c>O </c><c>   4</c></rc>
    <rc><c>O </c><c>   4</c></rc>
    <rc><c>O </c><c>   4</c></rc>
    <rc><c>O </c><c>   4</c></rc>
    <rc><c>O </c><c>   4</c></rc>
    <rc><c>O </c><c>   4</c></rc>
    <rc><c>O </c><c>   4</c></rc>
    <rc><c>O </c><c>   4</c></rc>
    <rc><c>O </c><c>   4</c></rc>
    <rc><c>O </c><c>   4</c></rc>
    <rc><c>O </c><c>   4</c></rc>
    <rc><c>O </c><c>   4</c></rc>
    <rc><c>O </c><c>   4</c></rc>
    <rc><c>O </c><c>   4</c></rc>
    <rc><c>O </c><c>   4</c></rc>
    <rc><c>O </c><c>   4</c></rc>
    <rc><c>O </c><c>   4</c></rc>
    <rc><c>O </c><c>   4</c></rc>
    <rc><c>O </c><c>   4</c></rc>
    <rc><c>O </c><c>   4</c></rc>
    <rc><c>O </c><c>   4</c></rc>
    <rc><c>O </c><c>   4</c></rc>
    <rc><c>O </c><c>   4</c></rc>
    <rc><c>O </c><c>   4</c></rc>
    <rc><c>O </c><c>   4</c></rc>
    <rc><c>O </c><c>   4</c></rc>
    <rc><c>O </c><c>   4</c></rc>
    <rc><c>O </c><c>   4</c></rc>
    <rc><c>O </c><c>   4</c></rc>
    <rc><c>O </c><c>   4</c></rc>
    <rc><c>O </c><c>   4</c></rc>
    <rc><c>O </c><c>   4</c></rc>
    <rc><c>O </c><c>   4</c></rc>
    <rc><c>O </c><c>   4</c></rc>
    <rc><c>O </c><c>   4</c></rc>
    <rc><c>O </c><c>   4</c></rc>
    <rc><c>O </c><c>   4</c></rc>
    <rc><c>O </c><c>   4</c></rc>
    <rc><c>O </c><c>   4</c></rc>
    <rc><c>O </c><c>   4</c></rc>
    <rc><c>O </c><c>   4</c></rc>
    <rc><c>O </c><c>   4</c></rc>
    <rc><c>O </c><c>   4</c></rc>
    <rc><c>O </c><c>   4</c></rc>
    <rc><c>O </c><c>   4</c></rc>
    <rc><c>O </c><c>   4</c></rc>
    <rc><c>O </c><c>   4</c></rc>
    <rc><c>O </c><c>   4</c></rc>
    <rc><c>Si</c><c>   5</c></rc>
    <rc><c>Si</c><c>   5</c></rc>
    <rc><c>Si</c><c>   5</c></rc>
    <rc><c>Si</c><c>   5</c></rc>
    <rc><c>Si</c><c>   5</c></rc>
    <rc><c>Si</c><c>   5</c></rc>
    <rc><c>Si</c><c>   5</c></rc>
    <rc><c>Si</c><c>   5</c></rc>
    <rc><c>Si</c><c>   5</c></rc>
    <rc><c>Si</c><c>   5</c></rc>
    <rc><c>Si</c><c>   5</c></rc>
    <rc><c>Si</c><c>   5</c></rc>
    <rc><c>Si</c><c>   5</c></rc>
    <rc><c>Si</c><c>   5</c></rc>
    <rc><c>Si</c><c>   5</c></rc>
    <rc><c>Si</c><c>   5</c></rc>
    <rc><c>Si</c><c>   5</c></rc>
    <rc><c>Si</c><c>   5</c></rc>
    <rc><c>Si</c><c>   5</c></rc>
    <rc><c>Si</c><c>   5</c></rc>
    <rc><c>Si</c><c>   5</c></rc>
    <rc><c>Si</c><c>   5</c></rc>
    <rc><c>Si</c><c>   5</c></rc>
    <rc><c>Si</c><c>   5</c></rc>
    <rc><c>Si</c><c>   5</c></rc>
    <rc><c>Si</c><c>   5</c></rc>
    <rc><c>Si</c><c>   5</c></rc>
    <rc><c>Si</c><c>   5</c></rc>
    <rc><c>Si</c><c>   5</c></rc>
    <rc><c>Si</c><c>   5</c></rc>
    <rc><c>Si</c><c>   5</c></rc>
    <rc><c>Si</c><c>   5</c></rc>
    <rc><c>Si</c><c>   5</c></rc>
    <rc><c>Si</c><c>   5</c></rc>
    <rc><c>Si</c><c>   5</c></rc>
   </set>
  </array>
  <array name="atomtypes" >
   <dimension dim="1">type</dimension>
   <field type="int">atomspertype</field>
   <field type="string">element</field>
   <field>mass</field>
   <field>valence</field>
   <field type="string">pseudopotential</field>
   <set>
    <rc><c>   1</c><c>Al</c><c>     26.98100000</c><c>      3.00000000</c><c>  PAW_PBE Al 04Jan2001                  </c></rc>
    <rc><c>   1</c><c>C </c><c>     12.01100000</c><c>      4.00000000</c><c>  PAW_PBE C 08Apr2002                   </c></rc>
    <rc><c>   3</c><c>H </c><c>      1.00000000</c><c>      1.00000000</c><c>  PAW_PBE H 15Jun2001                   </c></rc>
    <rc><c>  72</c><c>O </c><c>     16.00000000</c><c>      6.00000000</c><c>  PAW_PBE O 08Apr2002                   </c></rc>
    <rc><c>  35</c><c>Si</c><c>     28.08500000</c><c>      4.00000000</c><c>  PAW_PBE Si 05Jan2001                  </c></rc>
   </set>
  </array>
 </atominfo>
 <structure name="initialpos" >
  <crystal>
   <varray name="basis" >
    <v>      13.72957181      -0.00462456      -0.00141144 </v>
    <v>      -6.86873914      11.89091482       0.00181973 </v>
    <v>      -0.00151065       0.00130727      14.89037843 </v>
   </varray>
   <i name="volume">   2430.48799023 </i>
   <varray name="rec_basis" >
    <v>       0.07284966       0.04208131       0.00000370 </v>
    <v>       0.00002833       0.08411419      -0.00000738 </v>
    <v>       0.00000690      -0.00000629       0.06715746 </v>
   </varray>
  </crystal>
  <varray name="positions" >
   <v>       0.56226675       0.66695774       0.56210364 </v>
   <v>       0.75590676       0.76049391       0.50360023 </v>
   <v>       0.80128767       0.85120349       0.50359345 </v>
   <v>       0.80125279       0.71516558       0.50361007 </v>
   <v>       0.66517982       0.71511266       0.50359718 </v>
   <v>       0.01866908       0.33415778       0.83400028 </v>
   <v>       0.21409633       0.42707628       0.53524471 </v>
   <v>       0.54684068       0.09367858       0.20255533 </v>
   <v>       0.88033373       0.76060205       0.86690236 </v>
   <v>       0.45307532       0.54735605       0.79899071 </v>
   <v>       0.12054702       0.87953215       0.13137146 </v>
   <v>       0.09356834       0.54704988       0.79753904 </v>
   <v>       0.42908437       0.21450775       0.46642178 </v>
   <v>       0.76014491       0.88009731       0.13310068 </v>
   <v>       0.21378515       0.78703006       0.53379068 </v>
   <v>       0.90028721       0.09915112       0.12387986 </v>
   <v>       0.23937203       0.11999702       0.86781467 </v>
   <v>       0.86357454       0.43151607       0.45676915 </v>
   <v>       0.43242939       0.86426723       0.54370028 </v>
   <v>       0.98229452       0.31530457       0.16694177 </v>
   <v>       0.64817130       0.99953414       0.49955176 </v>
   <v>       0.00043896       0.64720847       0.49975529 </v>
   <v>       0.33298125       0.31452668       0.16704582 </v>
   <v>       0.98098642       0.66644197       0.16658376 </v>
   <v>       0.35239198       0.35174152       0.50050091 </v>
   <v>       0.68385168       0.01788778       0.16566335 </v>
   <v>       0.66669377       0.98186541       0.83352303 </v>
   <v>       0.00116992       0.35335410       0.49925248 </v>
   <v>       0.78762049       0.21296121       0.46562061 </v>
   <v>       0.33373752       0.01849548       0.16668310 </v>
   <v>       0.90604538       0.45293233       0.20052744 </v>
   <v>       0.31495955       0.33394208       0.83414386 </v>
   <v>       0.45343721       0.90696615       0.79859222 </v>
   <v>       0.07328832       0.66873069       0.66657635 </v>
   <v>       0.66878397       0.07248771       0.33291341 </v>
   <v>       0.99839898       0.73872197       0.99995682 </v>
   <v>       0.59484588       0.92882677       0.66664679 </v>
   <v>       0.92775304       0.59328347       0.33317011 </v>
   <v>       0.26044392       0.26022676       0.00041043 </v>
   <v>       0.40496547       0.33173231       0.33375974 </v>
   <v>       0.78717796       0.57370545       0.46504080 </v>
   <v>       0.73962094       0.99881333       0.99981828 </v>
   <v>       0.57346146       0.78656886       0.53553586 </v>
   <v>       0.59502641       0.66649762       0.66714202 </v>
   <v>       0.26173374       0.00093142       0.99988745 </v>
   <v>       0.07171686       0.40445488       0.66663892 </v>
   <v>       0.40502615       0.07341303       0.33357486 </v>
   <v>       0.33388493       0.40556150       0.66715660 </v>
   <v>       0.74130148       0.74157771       0.99990420 </v>
   <v>       0.54626077       0.45356368       0.20249386 </v>
   <v>       0.88005958       0.12063688       0.86801315 </v>
   <v>       0.33290645       0.92704622       0.66660571 </v>
   <v>       0.56813333       0.43345568       0.45573462 </v>
   <v>       0.66787315       0.59620520       0.33318521 </v>
   <v>       0.92707692       0.33365692       0.33309150 </v>
   <v>       0.35337550       0.00075342       0.50030064 </v>
   <v>       0.31507762       0.98219159       0.83302738 </v>
   <v>       0.90175571       0.80301538       0.12424376 </v>
   <v>       0.23451294       0.76604255       0.79065746 </v>
   <v>       0.11938162       0.23874371       0.13244245 </v>
   <v>       0.56886513       0.13557705       0.45505081 </v>
   <v>       0.23426633       0.46883248       0.78952332 </v>
   <v>       0.19789636       0.09842721       0.12373094 </v>
   <v>       0.00001922       0.26079870       0.00040007 </v>
   <v>       0.09929620       0.90094046       0.87711490 </v>
   <v>       0.80289743       0.90184265       0.87522089 </v>
   <v>       0.43312280       0.56754296       0.54387454 </v>
   <v>       0.53149813       0.76617893       0.78927568 </v>
   <v>       0.76513887       0.53069600       0.21050735 </v>
   <v>       0.13681379       0.56845723       0.54503361 </v>
   <v>       0.46898042       0.23467224       0.20963910 </v>
   <v>       0.64913284       0.64895484       0.50026552 </v>
   <v>       0.76597739       0.23394914       0.20912494 </v>
   <v>       0.66631742       0.68549264       0.83419044 </v>
   <v>       0.01850874       0.68504333       0.83354036 </v>
   <v>       0.09893653       0.19841567       0.87681325 </v>
   <v>       0.68535530       0.66617265       0.16567902 </v>
   <v>       0.56160226       0.89548670       0.77161425 </v>
   <v>       0.99963954       0.77178059       0.89479173 </v>
   <v>       0.89488496       0.33352588       0.22786143 </v>
   <v>       0.77144754       0.99942864       0.10518678 </v>
   <v>       0.10592703       0.43874517       0.56189606 </v>
   <v>       0.33357859       0.43886748       0.77206256 </v>
   <v>       0.00004570       0.77197853       0.10511512 </v>
   <v>       0.33358113       0.89516793       0.77182313 </v>
   <v>       0.22843925       0.99974974       0.10499738 </v>
   <v>       0.22769218       0.22754836       0.10550695 </v>
   <v>       0.10497779       0.43863490       0.77151563 </v>
   <v>       0.66790209       0.10513258       0.43790817 </v>
   <v>       0.00006699       0.22803651       0.10547304 </v>
   <v>       0.89486199       0.33327201       0.43832718 </v>
   <v>       0.33354587       0.89477868       0.56149855 </v>
   <v>       0.89471565       0.56103274       0.43828992 </v>
   <v>       0.10537040       0.66709381       0.77164668 </v>
   <v>       0.33375432       0.43838063       0.56208668 </v>
   <v>       0.89452606       0.56088599       0.22808763 </v>
   <v>       0.77256536       0.77270690       0.10534218 </v>
   <v>       0.66765425       0.56266940       0.43814029 </v>
   <v>       0.43903444       0.33331600       0.43871159 </v>
   <v>       0.10601279       0.66735158       0.56164940 </v>
   <v>       0.22845574       0.00058940       0.89487405 </v>
   <v>       0.66657228       0.56165633       0.22836123 </v>
   <v>       0.56149853       0.66686609       0.77198996 </v>
   <v>       0.99987949       0.22851408       0.89520799 </v>
   <v>       0.77276445       0.77281234       0.89450369 </v>
   <v>       0.66676104       0.10493668       0.22800227 </v>
   <v>       0.22801816       0.22811264       0.89521057 </v>
   <v>       0.43835039       0.33325187       0.22863568 </v>
   <v>       0.77236684       0.00040877       0.89457899 </v>
   <v>       0.56181870       0.89478902       0.56175798 </v>
   <v>       0.43865925       0.10549905       0.22850692 </v>
   <v>       0.43951841       0.10602589       0.43844766 </v>
  </varray>
 </structure>
 <calculation>
  <scstep>
   <time name="dav">    2.22    2.23</time>
   <time name="total">    2.33    2.34</time>
   <energy>
    <i name="alphaZ">    476.21782353 </i>
    <i name="ewald">  -2423.34494246 </i>
    <i name="hartreedc"> -28699.34866001 </i>
    <i name="XCdc">   1692.37583451 </i>
    <i name="pawpsdc">  28217.01960844 </i>
    <i name="pawaedc"> -27699.40053531 </i>
    <i name="eentropy">     -0.12150160 </i>
    <i name="bandstr">  -2079.52200419 </i>
    <i name="atom">  34968.35250874 </i>
    <i name="e_fr_energy">   4452.22813165 </i>
    <i name="e_wo_entrp">   4452.34963325 </i>
    <i name="e_0_energy">   4452.28888245 </i>
   </energy>
  </scstep>
  <scstep>
   <time name="dav">    2.56    2.57</time>
   <time name="total">    2.57    2.58</time>
   <energy>
    <i name="e_fr_energy">   -405.03932636 </i>
    <i name="e_wo_entrp">   -405.03932636 </i>
    <i name="e_0_energy">   -405.03932636 </i>
   </energy>
  </scstep>
  <scstep>
   <time name="dav">    2.30    2.31</time>
   <time name="total">    2.31    2.32</time>
   <energy>
    <i name="e_fr_energy">   -963.68485275 </i>
    <i name="e_wo_entrp">   -963.68485275 </i>
    <i name="e_0_energy">   -963.68485275 </i>
   </energy>
  </scstep>
  <scstep>
   <time name="dav">    2.27    2.28</time>
   <time name="total">    2.28    2.29</time>
   <energy>
    <i name="e_fr_energy">   -976.46244888 </i>
    <i name="e_wo_entrp">   -976.46244888 </i>
    <i name="e_0_energy">   -976.46244888 </i>
   </energy>
  </scstep>
  <scstep>
   <time name="dav">    2.25    2.26</time>
   <time name="total">    2.35    2.36</time>
   <energy>
    <i name="e_fr_energy">   -976.81919320 </i>
    <i name="e_wo_entrp">   -976.81919320 </i>
    <i name="e_0_energy">   -976.81919320 </i>
   </energy>
  </scstep>
  <scstep>
   <time name="dav">    2.18    2.18</time>
   <time name="total">    2.33    2.34</time>
   <energy>
    <i name="e_fr_energy">   -859.44016709 </i>
    <i name="e_wo_entrp">   -859.44016709 </i>
    <i name="e_0_energy">   -859.44016709 </i>
   </energy>
  </scstep>
  <scstep>
   <time name="dav">    2.36    2.37</time>
   <time name="total">    2.48    2.49</time>
   <energy>
    <i name="e_fr_energy">   -858.77581741 </i>
    <i name="e_wo_entrp">   -858.77581741 </i>
    <i name="e_0_energy">   -858.77581741 </i>
   </energy>
  </scstep>
  <scstep>
   <time name="dav">    2.21    2.22</time>
   <time name="total">    2.34    2.35</time>
   <energy>
    <i name="e_fr_energy">   -858.29630110 </i>
    <i name="e_wo_entrp">   -858.29630109 </i>
    <i name="e_0_energy">   -858.29630110 </i>
   </energy>
  </scstep>
  <scstep>
   <time name="dav">    2.21    2.22</time>
   <time name="total">    2.33    2.36</time>
   <energy>
    <i name="e_fr_energy">   -858.14838735 </i>
    <i name="e_wo_entrp">   -858.14838731 </i>
    <i name="e_0_energy">   -858.14838733 </i>
   </energy>
  </scstep>
  <scstep>
   <time name="dav">    2.17    2.18</time>
   <time name="total">    2.30    2.33</time>
   <energy>
    <i name="e_fr_energy">   -858.15006842 </i>
    <i name="e_wo_entrp">   -858.15006839 </i>
    <i name="e_0_energy">   -858.15006841 </i>
   </energy>
  </scstep>
  <scstep>
   <time name="dav">    2.14    2.15</time>
   <time name="total">    2.25    2.27</time>
   <energy>
    <i name="e_fr_energy">   -858.15104797 </i>
    <i name="e_wo_entrp">   -858.15104795 </i>
    <i name="e_0_energy">   -858.15104796 </i>
   </energy>
  </scstep>
  <scstep>
   <time name="dav">    2.16    2.18</time>
   <time name="total">    2.27    2.29</time>
   <energy>
    <i name="e_fr_energy">   -858.15756010 </i>
    <i name="e_wo_entrp">   -858.15756008 </i>
    <i name="e_0_energy">   -858.15756009 </i>
   </energy>
  </scstep>
  <scstep>
   <time name="dav">    2.16    2.17</time>
   <time name="total">    2.27    2.29</time>
   <energy>
    <i name="e_fr_energy">   -858.16873783 </i>
    <i name="e_wo_entrp">   -858.16873781 </i>
    <i name="e_0_energy">   -858.16873782 </i>
   </energy>
  </scstep>
  <scstep>
   <time name="dav">    2.16    2.17</time>
   <time name="total">    2.27    2.29</time>
   <energy>
    <i name="e_fr_energy">   -858.17637523 </i>
    <i name="e_wo_entrp">   -858.17637520 </i>
    <i name="e_0_energy">   -858.17637521 </i>
   </energy>
  </scstep>
  <scstep>
   <time name="dav">    2.35    2.36</time>
   <time name="total">    2.46    2.47</time>
   <energy>
    <i name="e_fr_energy">   -858.17922443 </i>
    <i name="e_wo_entrp">   -858.17922441 </i>
    <i name="e_0_energy">   -858.17922442 </i>
   </energy>
  </scstep>
  <scstep>
   <time name="dav">    2.27    2.28</time>
   <time name="total">    2.38    2.40</time>
   <energy>
    <i name="e_fr_energy">   -858.18046681 </i>
    <i name="e_wo_entrp">   -858.18046678 </i>
    <i name="e_0_energy">   -858.18046680 </i>
   </energy>
  </scstep>
  <scstep>
   <time name="dav">    2.13    2.15</time>
   <time name="total">    2.24    2.26</time>
   <energy>
    <i name="e_fr_energy">   -858.18079922 </i>
    <i name="e_wo_entrp">   -858.18079920 </i>
    <i name="e_0_energy">   -858.18079921 </i>
   </energy>
  </scstep>
  <scstep>
   <time name="dav">    2.09    2.10</time>
   <time name="total">    2.20    2.22</time>
   <energy>
    <i name="e_fr_energy">   -858.18107209 </i>
    <i name="e_wo_entrp">   -858.18107207 </i>
    <i name="e_0_energy">   -858.18107208 </i>
   </energy>
  </scstep>
  <scstep>
   <time name="dav">    2.05    2.06</time>
   <time name="total">    2.17    2.18</time>
   <energy>
    <i name="e_fr_energy">   -858.18119453 </i>
    <i name="e_wo_entrp">   -858.18119451 </i>
    <i name="e_0_energy">   -858.18119452 </i>
   </energy>
  </scstep>
  <scstep>
   <time name="dav">    2.04    2.05</time>
   <time name="total">    2.15    2.16</time>
   <energy>
    <i name="e_fr_energy">   -858.18122367 </i>
    <i name="e_wo_entrp">   -858.18122365 </i>
    <i name="e_0_energy">   -858.18122366 </i>
   </energy>
  </scstep>
  <scstep>
   <time name="dav">    1.78    1.79</time>
   <time name="total">    1.90    1.91</time>
   <energy>
    <i name="e_fr_energy">   -858.18123191 </i>
    <i name="e_wo_entrp">   -858.18123188 </i>
    <i name="e_0_energy">   -858.18123190 </i>
   </energy>
  </scstep>
  <scstep>
   <time name="dav">    1.61    1.62</time>
   <time name="total">    1.73    1.74</time>
   <energy>
    <i name="e_fr_energy">   -858.18123513 </i>
    <i name="e_wo_entrp">   -858.18123511 </i>
    <i name="e_0_energy">   -858.18123512 </i>
   </energy>
  </scstep>
  <scstep>
   <time name="dav">    1.55    1.56</time>
   <time name="total">    1.67    1.68</time>
   <energy>
    <i name="e_fr_energy">   -858.18123662 </i>
    <i name="e_wo_entrp">   -858.18123660 </i>
    <i name="e_0_energy">   -858.18123661 </i>
   </energy>
  </scstep>
  <scstep>
   <time name="dav">    1.60    1.61</time>
   <time name="total">    1.65    1.67</time>
   <energy>
    <i name="alphaZ">    476.21782353 </i>
    <i name="ewald">  -2423.34494246 </i>
    <i name="hartreedc"> -30582.12726075 </i>
    <i name="XCdc">   1803.77920865 </i>
    <i name="pawpsdc">  91641.07043248 </i>
    <i name="pawaedc"> -91149.00377015 </i>
    <i name="eentropy">     -0.00000002 </i>
    <i name="bandstr">  -5593.12523712 </i>
    <i name="atom">  34968.35250874 </i>
    <i name="e_fr_energy">   -858.18123710 </i>
    <i name="e_wo_entrp">   -858.18123708 </i>
    <i name="e_0_energy">   -858.18123709 </i>
   </energy>
  </scstep>
  <structure>
   <crystal>
    <varray name="basis" >
     <v>      13.72957181      -0.00462456      -0.00141144 </v>
     <v>      -6.86873914      11.89091482       0.00181973 </v>
     <v>      -0.00151065       0.00130727      14.89037843 </v>
    </varray>
    <i name="volume">   2430.48799023 </i>
    <varray name="rec_basis" >
     <v>       0.07284966       0.04208131       0.00000370 </v>
     <v>       0.00002833       0.08411419      -0.00000738 </v>
     <v>       0.00000690      -0.00000629       0.06715746 </v>
    </varray>
   </crystal>
   <varray name="positions" >
    <v>       0.56226675       0.66695774       0.56210364 </v>
    <v>       0.75590676       0.76049391       0.50360023 </v>
    <v>       0.80128767       0.85120349       0.50359345 </v>
    <v>       0.80125279       0.71516558       0.50361007 </v>
    <v>       0.66517982       0.71511266       0.50359718 </v>
    <v>       0.01866908       0.33415778       0.83400028 </v>
    <v>       0.21409633       0.42707628       0.53524471 </v>
    <v>       0.54684068       0.09367858       0.20255533 </v>
    <v>       0.88033373       0.76060205       0.86690236 </v>
    <v>       0.45307532       0.54735605       0.79899071 </v>
    <v>       0.12054702       0.87953215       0.13137146 </v>
    <v>       0.09356834       0.54704988       0.79753904 </v>
    <v>       0.42908437       0.21450775       0.46642178 </v>
    <v>       0.76014491       0.88009731       0.13310068 </v>
    <v>       0.21378515       0.78703006       0.53379068 </v>
    <v>       0.90028721       0.09915112       0.12387986 </v>
    <v>       0.23937203       0.11999702       0.86781467 </v>
    <v>       0.86357454       0.43151607       0.45676915 </v>
    <v>       0.43242939       0.86426723       0.54370028 </v>
    <v>       0.98229452       0.31530457       0.16694177 </v>
    <v>       0.64817130       0.99953414       0.49955176 </v>
    <v>       0.00043896       0.64720847       0.49975529 </v>
    <v>       0.33298125       0.31452668       0.16704582 </v>
    <v>       0.98098642       0.66644197       0.16658376 </v>
    <v>       0.35239198       0.35174152       0.50050091 </v>
    <v>       0.68385168       0.01788778       0.16566335 </v>
    <v>       0.66669377       0.98186541       0.83352303 </v>
    <v>       0.00116992       0.35335410       0.49925248 </v>
    <v>       0.78762049       0.21296121       0.46562061 </v>
    <v>       0.33373752       0.01849548       0.16668310 </v>
    <v>       0.90604538       0.45293233       0.20052744 </v>
    <v>       0.31495955       0.33394208       0.83414386 </v>
    <v>       0.45343721       0.90696615       0.79859222 </v>
    <v>       0.07328832       0.66873069       0.66657635 </v>
    <v>       0.66878397       0.07248771       0.33291341 </v>
    <v>       0.99839898       0.73872197       0.99995682 </v>
    <v>       0.59484588       0.92882677       0.66664679 </v>
    <v>       0.92775304       0.59328347       0.33317011 </v>
    <v>       0.26044392       0.26022676       0.00041043 </v>
    <v>       0.40496547       0.33173231       0.33375974 </v>
    <v>       0.78717796       0.57370545       0.46504080 </v>
    <v>       0.73962094       0.99881333       0.99981828 </v>
    <v>       0.57346146       0.78656886       0.53553586 </v>
    <v>       0.59502641       0.66649762       0.66714202 </v>
    <v>       0.26173374       0.00093142       0.99988745 </v>
    <v>       0.07171686       0.40445488       0.66663892 </v>
    <v>       0.40502615       0.07341303       0.33357486 </v>
    <v>       0.33388493       0.40556150       0.66715660 </v>
    <v>       0.74130148       0.74157771       0.99990420 </v>
    <v>       0.54626077       0.45356368       0.20249386 </v>
    <v>       0.88005958       0.12063688       0.86801315 </v>
    <v>       0.33290645       0.92704622       0.66660571 </v>
    <v>       0.56813333       0.43345568       0.45573462 </v>
    <v>       0.66787315       0.59620520       0.33318521 </v>
    <v>       0.92707692       0.33365692       0.33309150 </v>
    <v>       0.35337550       0.00075342       0.50030064 </v>
    <v>       0.31507762       0.98219159       0.83302738 </v>
    <v>       0.90175571       0.80301538       0.12424376 </v>
    <v>       0.23451294       0.76604255       0.79065746 </v>
    <v>       0.11938162       0.23874371       0.13244245 </v>
    <v>       0.56886513       0.13557705       0.45505081 </v>
    <v>       0.23426633       0.46883248       0.78952332 </v>
    <v>       0.19789636       0.09842721       0.12373094 </v>
    <v>       0.00001922       0.26079870       0.00040007 </v>
    <v>       0.09929620       0.90094046       0.87711490 </v>
    <v>       0.80289743       0.90184265       0.87522089 </v>
    <v>       0.43312280       0.56754296       0.54387454 </v>
    <v>       0.53149813       0.76617893       0.78927568 </v>
    <v>       0.76513887       0.53069600       0.21050735 </v>
    <v>       0.13681379       0.56845723       0.54503361 </v>
    <v>       0.46898042       0.23467224       0.20963910 </v>
    <v>       0.64913284       0.64895484       0.50026552 </v>
    <v>       0.76597739       0.23394914       0.20912494 </v>
    <v>       0.66631742       0.68549264       0.83419044 </v>
    <v>       0.01850874       0.68504333       0.83354036 </v>
    <v>       0.09893653       0.19841567       0.87681325 </v>
    <v>       0.68535530       0.66617265       0.16567902 </v>
    <v>       0.56160226       0.89548670       0.77161425 </v>
    <v>       0.99963954       0.77178059       0.89479173 </v>
    <v>       0.89488496       0.33352588       0.22786143 </v>
    <v>       0.77144754       0.99942864       0.10518678 </v>
    <v>       0.10592703       0.43874517       0.56189606 </v>
    <v>       0.33357859       0.43886748       0.77206256 </v>
    <v>       0.00004570       0.77197853       0.10511512 </v>
    <v>       0.33358113       0.89516793       0.77182313 </v>
    <v>       0.22843925       0.99974974       0.10499738 </v>
    <v>       0.22769218       0.22754836       0.10550695 </v>
    <v>       0.10497779       0.43863490       0.77151563 </v>
    <v>       0.66790209       0.10513258       0.43790817 </v>
    <v>       0.00006699       0.22803651       0.10547304 </v>
    <v>       0.89486199       0.33327201       0.43832718 </v>
    <v>       0.33354587       0.89477868       0.56149855 </v>
    <v>       0.89471565       0.56103274       0.43828992 </v>
    <v>       0.10537040       0.66709381       0.77164668 </v>
    <v>       0.33375432       0.43838063       0.56208668 </v>
    <v>       0.89452606       0.56088599       0.22808763 </v>
    <v>       0.77256536       0.77270690       0.10534218 </v>
    <v>       0.66765425       0.56266940       0.43814029 </v>
    <v>       0.43903444       0.33331600       0.43871159 </v>
    <v>       0.10601279       0.66735158       0.56164940 </v>
    <v>       0.22845574       0.00058940       0.89487405 </v>
    <v>       0.66657228       0.56165633       0.22836123 </v>
    <v>       0.56149853       0.66686609       0.77198996 </v>
    <v>       0.99987949       0.22851408       0.89520799 </v>
    <v>       0.77276445       0.77281234       0.89450369 </v>
    <v>       0.66676104       0.10493668       0.22800227 </v>
    <v>       0.22801816       0.22811264       0.89521057 </v>
    <v>       0.43835039       0.33325187       0.22863568 </v>
    <v>       0.77236684       0.00040877       0.89457899 </v>
    <v>       0.56181870       0.89478902       0.56175798 </v>
    <v>       0.43865925       0.10549905       0.22850692 </v>
    <v>       0.43951841       0.10602589       0.43844766 </v>
   </varray>
  </structure>
  <varray name="forces" >
   <v>      -6.92035004      -1.44489735       6.44632926 </v>
   <v>      12.39248171       4.16723908       0.64456684 </v>
   <v>      -2.10242462       0.34015534      -1.14544487 </v>
   <v>       0.95000283       1.98020185       1.02591536 </v>
   <v>      -8.80293059      15.79581217      -0.80170879 </v>
   <v>      -0.03217411      -0.02800625       0.02836700 </v>
   <v>      -0.39097793      -0.20653396      -0.03516183 </v>
   <v>      -0.03086529       0.01892368      -0.00031462 </v>
   <v>       0.14005065       0.00878740       0.05531007 </v>
   <v>      -0.21982486      -0.32496375       0.24990707 </v>
   <v>      -0.00889808      -0.02493818       0.03954736 </v>
   <v>      -0.06020893       0.03010456      -0.00082229 </v>
   <v>       0.02047741       0.27595335      -0.03838158 </v>
   <v>       0.01700073      -0.04674092       0.06187583 </v>
   <v>      -0.12635428      -0.06726175      -0.04377523 </v>
   <v>       0.01712641       0.00692319       0.03056057 </v>
   <v>       0.01786522      -0.03262945       0.02415346 </v>
   <v>      -0.28692170       0.25663222      -0.00272644 </v>
   <v>      -0.28696806       0.08630152      -0.01977754 </v>
   <v>      -0.03959709       0.04003615       0.04451119 </v>
   <v>      -0.01310990       0.42398743      -0.20369859 </v>
   <v>      -0.37585325      -0.08896445      -0.17509969 </v>
   <v>       0.08770852       0.06228951       0.09597898 </v>
   <v>      -0.02392072      -0.09849421       0.10825412 </v>
   <v>       0.46579872      -0.35349119      -0.35263762 </v>
   <v>      -0.02210119       0.01133005       0.03936761 </v>
   <v>       0.05068724       0.11264494       0.09428495 </v>
   <v>      -0.17135129      -0.04096121      -0.10254504 </v>
   <v>       0.00842392       0.11823295      -0.02351519 </v>
   <v>       0.01959950       0.02636777       0.03559798 </v>
   <v>      -0.07330721       0.09050063       0.04184802 </v>
   <v>      -0.00974533      -0.16395246       0.11470736 </v>
   <v>      -0.16006246       0.04763717       0.02488941 </v>
   <v>      -0.06462114      -0.01652807      -0.11683129 </v>
   <v>      -0.00820376       0.02732587      -0.04258116 </v>
   <v>       0.01835444      -0.01739915       0.11611575 </v>
   <v>      -0.09084347       0.14433163       0.05938156 </v>
   <v>      -0.17828813       0.00543257       0.24476126 </v>
   <v>       0.01161991      -0.00506585       0.12347433 </v>
   <v>       0.14424180       0.12604232       0.12360463 </v>
   <v>      -1.07771712      -0.23323772       0.28950314 </v>
   <v>      -0.00479673       0.01773931       0.12903481 </v>
   <v>      -1.10699596       3.05069475      -1.37166746 </v>
   <v>       0.86176110      -0.24413020       3.60393543 </v>
   <v>       0.00414846       0.00135159       0.08254715 </v>
   <v>      -0.07679812      -0.00498486      -0.03150023 </v>
   <v>      -0.02177918       0.03486888       0.00608541 </v>
   <v>      -0.05984872      -0.24231187       0.11309410 </v>
   <v>       0.03182939      -0.01124461       0.26688515 </v>
   <v>       0.08194611       0.15665681       0.13317083 </v>
   <v>       0.01812559       0.05348263       0.02310427 </v>
   <v>      -0.06157202       0.02149570      -0.04512392 </v>
   <v>       0.36691595       1.50292538       0.42009720 </v>
   <v>      -0.21735279       0.10400060       1.10699989 </v>
   <v>      -0.03314963       0.04482955       0.01713268 </v>
   <v>      -0.06684099       0.12264759      -0.08403003 </v>
   <v>      -0.03899531       0.02761753       0.03482588 </v>
   <v>       0.00864014      -0.03050725       0.06223108 </v>
   <v>      -0.05167331      -0.02927569      -0.01329190 </v>
   <v>       0.01825806       0.01124510       0.03921087 </v>
   <v>      -0.09195046       0.08740787      -0.02635245 </v>
   <v>      -0.16939386      -0.03838393       0.03014515 </v>
   <v>       0.00141487       0.00508438       0.03410856 </v>
   <v>      -0.00098071       0.01446197       0.08859830 </v>
   <v>       0.00931925       0.00415117       0.02792293 </v>
   <v>       0.02520120       0.08855038       0.08406056 </v>
   <v>      -1.61370670      -3.20726482      -0.95623808 </v>
   <v>      -0.23062331       0.28442318       0.21378488 </v>
   <v>      -0.16207371       0.00811770       0.16224953 </v>
   <v>      -0.15952157       0.07220884      -0.05110928 </v>
   <v>      -0.01715096       0.10212790       0.03155392 </v>
   <v>       3.94589335     -18.27615791      -3.85402379 </v>
   <v>      -0.01105232       0.05694745       0.01151729 </v>
   <v>       0.29115988       0.16030456       0.51500473 </v>
   <v>      -0.00505955      -0.01310043       0.00284812 </v>
   <v>      -0.01134099      -0.02074195       0.03600010 </v>
   <v>       0.00041743      -0.18235370       0.25294060 </v>
   <v>       0.18359391      -0.35271272      -0.13077765 </v>
   <v>      -0.09658527       0.01210696      -0.09978243 </v>
   <v>       0.07922291      -0.10295966      -0.03789412 </v>
   <v>      -0.02535474       0.01154470      -0.13150095 </v>
   <v>       0.36240795       0.00521390       0.07903215 </v>
   <v>       0.23085593       0.33031515      -0.16224880 </v>
   <v>       0.00238942       0.07607798      -0.15011816 </v>
   <v>       0.15559821      -0.01157605       0.00732066 </v>
   <v>       0.00676659       0.00156291      -0.09399202 </v>
   <v>      -0.05369020      -0.02579607      -0.14253389 </v>
   <v>       0.17087561       0.02119944      -0.00121501 </v>
   <v>       0.04375983      -0.23034467       0.15014768 </v>
   <v>       0.00116922      -0.01491507      -0.09232371 </v>
   <v>       0.21607757      -0.18794794       0.05756716 </v>
   <v>       0.27022216      -0.07049863       0.10046527 </v>
   <v>       1.03850652      -0.12708766      -0.13738985 </v>
   <v>       0.08223973      -0.00565288       0.08181119 </v>
   <v>       0.12211003       1.31440693       0.05930973 </v>
   <v>       0.18716529       0.01091086      -0.24438763 </v>
   <v>      -0.00160211       0.15796644      -0.28845982 </v>
   <v>       2.65149120      -3.25436720      -4.00507580 </v>
   <v>      -1.02949149      -0.73736516       0.15840484 </v>
   <v>       0.34589169       0.03868657       0.21612547 </v>
   <v>       0.00293993       0.00846214      -0.07879143 </v>
   <v>       0.01512296      -0.04273067      -0.75574926 </v>
   <v>       0.47834863      -0.02513860      -1.47773200 </v>
   <v>      -0.00501101      -0.01939431      -0.08742820 </v>
   <v>      -0.26746568      -0.18403709      -0.35250112 </v>
   <v>       0.02903094      -0.06830721       0.01082256 </v>
   <v>       0.00718588       0.10639336      -0.14400161 </v>
   <v>      -0.09566841      -0.18668131      -0.18738701 </v>
   <v>      -0.04371631      -0.12165014      -0.16139449 </v>
   <v>       0.53680870      -0.72323549      -0.11167667 </v>
   <v>       0.03419491      -0.11317344      -0.03423373 </v>
   <v>       0.12841712      -0.23128641       0.03404503 </v>
  </varray>
  <varray name="stress" >
   <v>     -10.52355141       1.95431996      -3.71181771 </v>
   <v>       1.95431994      -9.02746868       0.79853173 </v>
   <v>      -3.71181777       0.79853172     -19.49301269 </v>
  </varray>
  <energy>
   <i name="e_fr_energy">   -858.18123710 </i>
   <i name="e_wo_entrp">   -858.18123709 </i>
   <i name="e_0_energy">     -0.00000002 </i>
  </energy>
  <time name="totalsc">   54.93   55.31</time>
 </calculation>
 <calculation>
  <scstep>
   <time name="dav">    2.08    2.09</time>
   <time name="total">    2.20    2.21</time>
   <energy>
    <i name="alphaZ">    476.21782353 </i>
    <i name="ewald">  -2410.23610646 </i>
    <i name="hartreedc"> -30546.64867857 </i>
    <i name="XCdc">   1801.64841202 </i>
    <i name="pawpsdc">  91640.85225884 </i>
    <i name="pawaedc"> -91148.78568908 </i>
    <i name="eentropy">     -0.00003696 </i>
    <i name="bandstr">  -5619.49785106 </i>
    <i name="atom">  34968.35250874 </i>
    <i name="e_fr_energy">   -838.09735900 </i>
    <i name="e_wo_entrp">   -838.09732204 </i>
    <i name="e_0_energy">   -838.09734052 </i>
   </energy>
  </scstep>
  <scstep>
   <time name="dav">    2.13    2.14</time>
   <time name="total">    2.24    2.25</time>
   <energy>
    <i name="e_fr_energy">   -849.54730892 </i>
    <i name="e_wo_entrp">   -849.54730892 </i>
    <i name="e_0_energy">   -849.54730892 </i>
   </energy>
  </scstep>
  <scstep>
   <time name="dav">    2.39    2.41</time>
   <time name="total">    2.50    2.52</time>
   <energy>
    <i name="e_fr_energy">   -848.99122964 </i>
    <i name="e_wo_entrp">   -848.99122964 </i>
    <i name="e_0_energy">   -848.99122964 </i>
   </energy>
  </scstep>
  <scstep>
   <time name="dav">    2.15    2.17</time>
   <time name="total">    2.27    2.28</time>
   <energy>
    <i name="e_fr_energy">   -846.26330858 </i>
    <i name="e_wo_entrp">   -846.26261954 </i>
    <i name="e_0_energy">   -846.26296406 </i>
   </energy>
  </scstep>
  <scstep>
   <time name="dav">    2.38    2.40</time>
   <time name="total">    2.50    2.51</time>
   <energy>
    <i name="e_fr_energy">   -846.23725655 </i>
    <i name="e_wo_entrp">   -846.23302220 </i>
    <i name="e_0_energy">   -846.23513937 </i>
   </energy>
  </scstep>
  <scstep>
   <time name="dav">    2.51    2.52</time>
   <time name="total">    2.62    2.64</time>
   <energy>
    <i name="e_fr_energy">   -846.43994825 </i>
    <i name="e_wo_entrp">   -846.43994809 </i>
    <i name="e_0_energy">   -846.43994817 </i>
   </energy>
  </scstep>
  <scstep>
   <time name="dav">    2.33    2.35</time>
   <time name="total">    2.45    2.46</time>
   <energy>
    <i name="e_fr_energy">   -845.89276769 </i>
    <i name="e_wo_entrp">   -845.85960813 </i>
    <i name="e_0_energy">   -845.87618791 </i>
   </energy>
  </scstep>
  <scstep>
   <time name="dav">    2.14    2.15</time>
   <time name="total">    2.25    2.26</time>
   <energy>
    <i name="e_fr_energy">   -845.87662988 </i>
    <i name="e_wo_entrp">   -845.80590416 </i>
    <i name="e_0_energy">   -845.84126702 </i>
   </energy>
  </scstep>
  <scstep>
   <time name="dav">    2.81    2.83</time>
   <time name="total">    2.92    2.94</time>
   <energy>
    <i name="e_fr_energy">   -845.92467616 </i>
    <i name="e_wo_entrp">   -845.89885496 </i>
    <i name="e_0_energy">   -845.91176556 </i>
   </energy>
  </scstep>
  <scstep>
   <time name="dav">    2.30    2.31</time>
   <time name="total">    2.41    2.43</time>
   <energy>
    <i name="e_fr_energy">   -845.84203098 </i>
    <i name="e_wo_entrp">   -845.75902260 </i>
    <i name="e_0_energy">   -845.80052679 </i>
   </energy>
  </scstep>
  <scstep>
   <time name="dav">    2.17    2.19</time>
   <time name="total">    2.29    2.30</time>
   <energy>
    <i name="e_fr_energy">   -845.85483998 </i>
    <i name="e_wo_entrp">   -845.77832524 </i>
    <i name="e_0_energy">   -845.81658261 </i>
   </energy>
  </scstep>
  <scstep>
   <time name="dav">    2.26    2.27</time>
   <time name="total">    2.37    2.39</time>
   <energy>
    <i name="e_fr_energy">   -845.85419025 </i>
    <i name="e_wo_entrp">   -845.76870034 </i>
    <i name="e_0_energy">   -845.81144530 </i>
   </energy>
  </scstep>
  <scstep>
   <time name="dav">    2.19    2.20</time>
   <time name="total">    2.30    2.32</time>
   <energy>
    <i name="e_fr_energy">   -845.85213790 </i>
    <i name="e_wo_entrp">   -845.76953126 </i>
    <i name="e_0_energy">   -845.81083458 </i>
   </energy>
  </scstep>
  <scstep>
   <time name="dav">    2.14    2.15</time>
   <time name="total">    2.25    2.27</time>
   <energy>
    <i name="e_fr_energy">   -845.85317526 </i>
    <i name="e_wo_entrp">   -845.76978412 </i>
    <i name="e_0_energy">   -845.81147969 </i>
   </energy>
  </scstep>
  <scstep>
   <time name="dav">    2.51    2.53</time>
   <time name="total">    2.63    2.64</time>
   <energy>
    <i name="e_fr_energy">   -845.85341577 </i>
    <i name="e_wo_entrp">   -845.77011901 </i>
    <i name="e_0_energy">   -845.81176739 </i>
   </energy>
  </scstep>
  <scstep>
   <time name="dav">    2.21    2.22</time>
   <time name="total">    2.32    2.33</time>
   <energy>
    <i name="e_fr_energy">   -845.85368184 </i>
    <i name="e_wo_entrp">   -845.77188321 </i>
    <i name="e_0_energy">   -845.81278252 </i>
   </energy>
  </scstep>
  <scstep>
   <time name="dav">    2.37    2.39</time>
   <time name="total">    2.49    2.50</time>
   <energy>
    <i name="e_fr_energy">   -845.85373918 </i>
    <i name="e_wo_entrp">   -845.77099373 </i>
    <i name="e_0_energy">   -845.81236645 </i>
   </energy>
  </scstep>
  <scstep>
   <time name="dav">    2.08    2.10</time>
   <time name="total">    2.20    2.21</time>
   <energy>
    <i name="e_fr_energy">   -845.85378478 </i>
    <i name="e_wo_entrp">   -845.77127052 </i>
    <i name="e_0_energy">   -845.81252765 </i>
   </energy>
  </scstep>
  <scstep>
   <time name="dav">    2.10    2.11</time>
   <time name="total">    2.21    2.22</time>
   <energy>
    <i name="e_fr_energy">   -845.85382339 </i>
    <i name="e_wo_entrp">   -845.77128550 </i>
    <i name="e_0_energy">   -845.81255444 </i>
   </energy>
  </scstep>
  <scstep>
   <time name="dav">    1.62    1.63</time>
   <time name="total">    1.86    1.87</time>
   <energy>
    <i name="e_fr_energy">   -845.85383360 </i>
    <i name="e_wo_entrp">   -845.77125284 </i>
    <i name="e_0_energy">   -845.81254322 </i>
   </energy>
  </scstep>
  <scstep>
   <time name="dav">    1.63    1.64</time>
   <time name="total">    1.74    1.75</time>
   <energy>
    <i name="e_fr_energy">   -845.85384229 </i>
    <i name="e_wo_entrp">   -845.77125997 </i>
    <i name="e_0_energy">   -845.81255113 </i>
   </energy>
  </scstep>
  <scstep>
   <time name="dav">    1.57    1.58</time>
   <time name="total">    1.68    1.69</time>
   <energy>
    <i name="e_fr_energy">   -845.85384528 </i>
    <i name="e_wo_entrp">   -845.77129029 </i>
    <i name="e_0_energy">   -845.81256779 </i>
   </energy>
  </scstep>
  <scstep>
   <time name="dav">    1.62    1.63</time>
   <time name="total">    1.73    1.74</time>
   <energy>
    <i name="e_fr_energy">   -845.85384692 </i>
    <i name="e_wo_entrp">   -845.77128341 </i>
    <i name="e_0_energy">   -845.81256517 </i>
   </energy>
  </scstep>
  <scstep>
   <time name="dav">    1.56    1.56</time>
   <time name="total">    1.67    1.68</time>
   <energy>
    <i name="e_fr_energy">   -845.85384821 </i>
    <i name="e_wo_entrp">   -845.77127360 </i>
    <i name="e_0_energy">   -845.81256090 </i>
   </energy>
  </scstep>
  <scstep>
   <time name="dav">    1.63    1.64</time>
   <time name="total">    1.68    1.70</time>
   <energy>
    <i name="alphaZ">    476.21782353 </i>
    <i name="ewald">  -2410.23610646 </i>
    <i name="hartreedc"> -30604.05286259 </i>
    <i name="XCdc">   1804.39080753 </i>
    <i name="pawpsdc">  96975.43980909 </i>
    <i name="pawaedc"> -96483.79631439 </i>
    <i name="eentropy">     -0.08257028 </i>
    <i name="bandstr">  -5572.08694350 </i>
    <i name="atom">  34968.35250874 </i>
    <i name="e_fr_energy">   -845.85384832 </i>
    <i name="e_wo_entrp">   -845.77127805 </i>
    <i name="e_0_energy">   -845.81256318 </i>
   </energy>
  </scstep>
  <structure>
   <crystal>
    <varray name="basis" >
     <v>      13.72957181      -0.00462456      -0.00141144 </v>
     <v>      -6.86873914      11.89091482       0.00181973 </v>
     <v>      -0.00151065       0.00130727      14.89037843 </v>
    </varray>
    <i name="volume">   2430.48799023 </i>
    <varray name="rec_basis" >
     <v>       0.07284966       0.04208131       0.00000370 </v>
     <v>       0.00002833       0.08411419      -0.00000738 </v>
     <v>       0.00000690      -0.00000629       0.06715746 </v>
    </varray>
   </crystal>
   <varray name="positions" >
    <v>       0.53501330       0.66108275       0.58298694 </v>
    <v>       0.80791974       0.77742082       0.50569140 </v>
    <v>       0.79458913       0.85258133       0.49988157 </v>
    <v>       0.80861175       0.72320195       0.50693360 </v>
    <v>       0.66630943       0.77919860       0.50099204 </v>
    <v>       0.01849916       0.33404408       0.83409218 </v>
    <v>       0.21230296       0.42623766       0.53513073 </v>
    <v>       0.54677062       0.09375533       0.20255429 </v>
    <v>       0.88084378       0.76063788       0.86708160 </v>
    <v>       0.45164308       0.54603700       0.79980039 </v>
    <v>       0.12046513       0.87943092       0.13149960 </v>
    <v>       0.09341785       0.54717196       0.79753635 </v>
    <v>       0.42971655       0.21562758       0.46629735 </v>
    <v>       0.76010978       0.87990764       0.13330117 </v>
    <v>       0.21320453       0.78675696       0.53364884 </v>
    <v>       0.90036146       0.09917923       0.12397887 </v>
    <v>       0.23936858       0.11986463       0.86789294 </v>
    <v>       0.86308715       0.43255707       0.45676015 </v>
    <v>       0.43159605       0.86461705       0.54363608 </v>
    <v>       0.98223664       0.31546696       0.16708595 </v>
    <v>       0.64898594       0.00125469       0.49889167 </v>
    <v>      -0.00106260       0.64684701       0.49918789 </v>
    <v>       0.33341597       0.31477953       0.16735679 </v>
    <v>       0.98070242       0.66604222       0.16693450 </v>
    <v>       0.35331132       0.35030786       0.49935868 </v>
    <v>       0.68379701       0.01793371       0.16579089 </v>
    <v>       0.66710061       0.98232254       0.83382848 </v>
    <v>       0.00048454       0.35318768       0.49892021 </v>
    <v>       0.78789012       0.21344100       0.46554439 </v>
    <v>       0.33385994       0.01860249       0.16679843 </v>
    <v>       0.90597148       0.45329945       0.20066297 </v>
    <v>       0.31459248       0.33327673       0.83451555 </v>
    <v>       0.45297139       0.90715923       0.79867279 </v>
    <v>       0.07302763       0.66866357       0.66619782 </v>
    <v>       0.66881060       0.07259860       0.33277544 </v>
    <v>       0.99842818       0.73865135       0.00033303 </v>
    <v>       0.59481963       0.92941230       0.66683911 </v>
    <v>       0.92713753       0.59330518       0.33396304 </v>
    <v>       0.26047450       0.26020617       0.00081047 </v>
    <v>       0.40572831       0.33224393       0.33416021 </v>
    <v>       0.78291692       0.57275742       0.46597846 </v>
    <v>       0.73964012       0.99888526       0.00023633 </v>
    <v>       0.57576398       0.79894723       0.53109056 </v>
    <v>       0.59756007       0.66550686       0.67881861 </v>
    <v>       0.26175108       0.00093688       0.00015489 </v>
    <v>       0.07143683       0.40443456       0.66653684 </v>
    <v>       0.40502040       0.07355449       0.33359456 </v>
    <v>       0.33318269       0.40457810       0.66752306 </v>
    <v>       0.74139056       0.74153203       0.00076888 </v>
    <v>       0.54686682       0.45419944       0.20292529 </v>
    <v>       0.88023186       0.12085392       0.86808800 </v>
    <v>       0.33273369       0.92713338       0.66645949 </v>
    <v>       0.57247402       0.43955474       0.45709534 </v>
    <v>       0.66732060       0.59662654       0.33677163 </v>
    <v>       0.92705143       0.33383878       0.33314699 </v>
    <v>       0.35338956       0.00125105       0.50002834 </v>
    <v>       0.31499665       0.98230359       0.83314019 </v>
    <v>       0.90172415       0.80289158       0.12444539 </v>
    <v>       0.23427190       0.76592369       0.79061439 </v>
    <v>       0.11946862       0.23878936       0.13256949 </v>
    <v>       0.56871942       0.13593163       0.45496537 </v>
    <v>       0.23359308       0.46867648       0.78962094 </v>
    <v>       0.19791166       0.09844783       0.12384145 </v>
    <v>       0.00004515       0.26085735       0.00068711 </v>
    <v>       0.09933739       0.90095731       0.87720537 </v>
    <v>       0.80316578       0.90220198       0.87549321 </v>
    <v>       0.42094021       0.55452636       0.54077691 </v>
    <v>       0.53126506       0.76733270       0.78996815 </v>
    <v>       0.76458578       0.53072866       0.21103296 </v>
    <v>       0.13639974       0.56875004       0.54486795 </v>
    <v>       0.46912748       0.23508663       0.20974129 </v>
    <v>       0.62589715       0.57479894       0.48778590 </v>
    <v>       0.76605416       0.23418020       0.20916223 </v>
    <v>       0.66766622       0.68614336       0.83585903 </v>
    <v>       0.01846437       0.68499016       0.83354959 </v>
    <v>       0.09885457       0.19833148       0.87692989 </v>
    <v>       0.68498662       0.66543259       0.16649856 </v>
    <v>       0.56153142       0.89405573       0.77119072 </v>
    <v>       0.99932465       0.77182962       0.89446841 </v>
    <v>       0.89495436       0.33310821       0.22773872 </v>
    <v>       0.77138184       0.99947550       0.10476073 </v>
    <v>       0.10721130       0.43876679       0.56215223 </v>
    <v>       0.33506047       0.44020824       0.77153687 </v>
    <v>       0.00020852       0.77228731       0.10462874 </v>
    <v>       0.33410448       0.89512117       0.77184691 </v>
    <v>       0.22846618       0.99975612       0.10469286 </v>
    <v>       0.22745110       0.22744366       0.10504515 </v>
    <v>       0.10562137       0.43872116       0.77151174 </v>
    <v>       0.66758828       0.10419787       0.43839471 </v>
    <v>       0.00004081       0.22797602       0.10517393 </v>
    <v>       0.89523984       0.33250961       0.43851382 </v>
    <v>       0.33435245       0.89449294       0.56182416 </v>
    <v>       0.89810742       0.56051850       0.43784519 </v>
    <v>       0.10564797       0.66707096       0.77191177 </v>
    <v>       0.33685187       0.44371450       0.56227848 </v>
    <v>       0.89520596       0.56093061       0.22729591 </v>
    <v>       0.77288037       0.77334802       0.10440757 </v>
    <v>       0.67036536       0.54946858       0.42516630 </v>
    <v>       0.43391942       0.33032239       0.43922467 </v>
    <v>       0.10730699       0.66750896       0.56234971 </v>
    <v>       0.22848324       0.00062377       0.89461877 </v>
    <v>       0.66653854       0.56148322       0.22591273 </v>
    <v>       0.56312837       0.66676526       0.76720249 </v>
    <v>       0.99982250       0.22843541       0.89492474 </v>
    <v>       0.77145077       0.77206530       0.89336160 </v>
    <v>       0.66672440       0.10465954       0.22803736 </v>
    <v>       0.22825938       0.22854443       0.89474400 </v>
    <v>       0.43763515       0.33249427       0.22802860 </v>
    <v>       0.77196621      -0.00008488       0.89405612 </v>
    <v>       0.56223702       0.89185498       0.56139656 </v>
    <v>       0.43854967       0.10503986       0.22839605 </v>
    <v>       0.43950019       0.10508752       0.43855807 </v>
   </varray>
  </structure>
  <varray name="forces" >
   <v>       2.61688292       1.82201432      -3.79075732 </v>
   <v>     -21.68391666      31.65713188      -1.37711546 </v>
   <v>       2.31786378      -0.95160027      -0.17460069 </v>
   <v>      17.47387180     -29.47073503       1.60898203 </v>
   <v>       1.96409675      -0.52144357       0.41237104 </v>
   <v>       0.02838266       0.17589872      -0.12596145 </v>
   <v>       1.27496972      -0.16419369       0.02808833 </v>
   <v>       0.14532823      -0.01368309      -0.02611033 </v>
   <v>      -0.60703728       0.02065556       0.00972566 </v>
   <v>       0.80370259       1.67360960      -0.18589720 </v>
   <v>       0.07680701       0.10684812      -0.00811167 </v>
   <v>       0.17059368      -0.22332329      -0.00521452 </v>
   <v>       0.55906942      -1.03531416       0.05960756 </v>
   <v>      -0.13070816       0.20043768       0.00026718 </v>
   <v>       0.36952185       0.49176844       0.01960644 </v>
   <v>      -0.03470153      -0.04366043      -0.01435338 </v>
   <v>      -0.07542054       0.13535678       0.01381579 </v>
   <v>       0.93024814      -1.54022266       0.01221039 </v>
   <v>       1.32374184      -0.19296912       0.06870734 </v>
   <v>       0.24508780      -0.10824820      -0.20489151 </v>
   <v>       0.04053204      -1.24439752       1.07214185 </v>
   <v>       1.45182641       0.86017835       1.18320501 </v>
   <v>      -0.49333375      -0.22196659      -0.40978851 </v>
   <v>       0.03327628       0.55415958      -0.44179294 </v>
   <v>      -2.39280355       1.17065533       2.07545744 </v>
   <v>       0.13346727      -0.09524513      -0.12127851 </v>
   <v>      -0.50404106      -0.36631888      -0.49135275 </v>
   <v>       0.63866973       0.38116992       0.55376435 </v>
   <v>      -0.23829662      -0.42863573      -0.00816016 </v>
   <v>      -0.14151222      -0.10103825      -0.14226164 </v>
   <v>       0.29113612      -0.48748257      -0.05898954 </v>
   <v>      -0.02217217       0.77615317      -0.57096118 </v>
   <v>       0.85804069      -0.04086888      -0.07004569 </v>
   <v>       0.06690386       0.00631289       0.49978109 </v>
   <v>      -0.00836599      -0.03332672       0.18823754 </v>
   <v>       0.02313688      -0.01584406      -0.48552016 </v>
   <v>       0.08519217      -0.32522329      -0.53705788 </v>
   <v>       0.16076496       0.03798613      -1.35833069 </v>
   <v>       0.00995523       0.02408616      -0.48804943 </v>
   <v>      -0.07292652       0.00084665      -0.70174162 </v>
   <v>       7.68119450      -0.34323840      -0.43105859 </v>
   <v>      -0.02212010      -0.00983980      -0.59333512 </v>
   <v>       4.87876055      -8.79765768      -1.58765025 </v>
   <v>       3.83871391      -0.09727486     -10.93345861 </v>
   <v>       0.02212256       0.00152972      -0.34239470 </v>
   <v>       0.02235968       0.05544732       0.15252834 </v>
   <v>       0.00238375      -0.02811024      -0.05088433 </v>
   <v>       0.02828380       0.28348538      -0.62857309 </v>
   <v>      -0.01429197      -0.01206043      -1.04479977 </v>
   <v>      -0.43852521      -0.72035070      -0.05379356 </v>
   <v>      -0.14787747      -0.25287669       0.00225477 </v>
   <v>       0.04913669      -0.03130722       0.15796735 </v>
   <v>      -2.20385478     -14.23708621      -1.19546519 </v>
   <v>      -0.71584588       1.52538851      -9.41665892 </v>
   <v>       0.02672072       0.00235207      -0.11769992 </v>
   <v>       0.03470200      -0.63740722       0.45770222 </v>
   <v>       0.22087070      -0.14132181      -0.17979523 </v>
   <v>      -0.01853613      -0.01155720      -0.01874383 </v>
   <v>       0.18567321       0.17872478      -0.01754116 </v>
   <v>      -0.06720349       0.01764772       0.00179197 </v>
   <v>       0.33695434      -0.05285519       0.00228170 </v>
   <v>       0.76177478       0.08840064      -0.04656859 </v>
   <v>       0.01532215       0.01146188      -0.00997585 </v>
   <v>       0.00311304       0.01349785      -0.36579623 </v>
   <v>       0.00097074      -0.01013378       0.01121788 </v>
   <v>       0.10773235      -0.19918158      -0.03246784 </v>
   <v>       2.17691145      10.13084375      -2.21922295 </v>
   <v>       0.80720953      -1.59093692      -0.33749818 </v>
   <v>       0.63732331      -0.06401542      -0.04838688 </v>
   <v>       0.43410959      -0.45564830      -0.00518822 </v>
   <v>       0.20379176      -0.35155635      -0.03230383 </v>
   <v>     -24.66581526      16.23387412      28.06251736 </v>
   <v>      -0.08374531      -0.16231167      -0.01170169 </v>
   <v>      -1.59736271      -0.95088983      -1.16672935 </v>
   <v>       0.05121971       0.00017792      -0.01356326 </v>
   <v>       0.04130909      -0.00368247       0.00909404 </v>
   <v>      -0.10431465       1.17937796      -0.86128970 </v>
   <v>      -0.65352960       1.34457983       0.66253979 </v>
   <v>       0.30821261      -0.02952456       0.27401729 </v>
   <v>      -0.22824809       0.28516910       0.17619241 </v>
   <v>       0.09651747      -0.05585277       0.39901669 </v>
   <v>      -1.22261684      -0.19113976      -0.22294274 </v>
   <v>      -0.76452011      -1.32020617       0.62703557 </v>
   <v>      -0.02641951      -0.19236350       0.44303920 </v>
   <v>      -0.57666458       0.10354942      -0.00490540 </v>
   <v>      -0.03534378      -0.03810397       0.27283408 </v>
   <v>       0.11582951       0.05478628       0.39345287 </v>
   <v>      -0.61901614      -0.14399978      -0.01246887 </v>
   <v>      -0.31811344       1.11984617      -0.58550093 </v>
   <v>      -0.00023048       0.04931371       0.27524469 </v>
   <v>      -0.79861258       0.64537914      -0.14244719 </v>
   <v>      -1.15292851       0.31492769      -0.26261892 </v>
   <v>      -3.12199210       0.27072208       0.45220911 </v>
   <v>      -0.35442733      -0.02313573      -0.25521193 </v>
   <v>      -3.53342770     -12.59184988       1.45028097 </v>
   <v>      -0.47453081       0.04939629       0.91192854 </v>
   <v>       0.05390356      -0.35420415       0.87046057 </v>
   <v>      20.13509143      -4.96540739     -18.92555750 </v>
   <v>       2.67677023       1.37360590      -0.85141697 </v>
   <v>      -1.26556037      -0.12643688      -0.65481585 </v>
   <v>      -0.03564483      -0.03498488       0.23580863 </v>
   <v>      -0.07032580       0.33226248       2.07225441 </v>
   <v>      -3.58686839      -0.01535409      14.39152754 </v>
   <v>       0.02720625       0.06548180       0.25677494 </v>
   <v>       0.97100320       0.69237255       1.21254331 </v>
   <v>      -0.08375926       0.22629414      -0.01287910 </v>
   <v>      -0.04886985      -0.35970748       0.42297670 </v>
   <v>       0.31358350       0.50676308       0.56741667 </v>
   <v>       0.20609250       0.38001892       0.51514572 </v>
   <v>      -5.70808489       8.55574602       1.95143853 </v>
   <v>      -0.09321391       0.29850654       0.12396443 </v>
   <v>      -0.30826608       0.74311200      -0.12977285 </v>
  </varray>
  <varray name="stress" >
   <v>      -3.39919425      -9.06033266     -15.54299377 </v>
   <v>      -9.06033268      17.21523315       2.97238990 </v>
   <v>     -15.54299380       2.97238985       9.48969089 </v>
  </varray>
  <energy>
   <i name="e_fr_energy">   -845.85384832 </i>
   <i name="e_wo_entrp">   -845.81256318 </i>
   <i name="e_0_energy">     -0.08257028 </i>
  </energy>
  <time name="totalsc">   57.48   57.87</time>
 </calculation>
 <calculation>
  <scstep>
   <time name="dav">    2.08    2.09</time>
   <time name="total">    2.22    2.24</time>
   <energy>
    <i name="alphaZ">    476.21782353 </i>
    <i name="ewald">  -2483.34154466 </i>
    <i name="hartreedc"> -30549.11097447 </i>
    <i name="XCdc">   1803.36222328 </i>
    <i name="pawpsdc">  96975.46106535 </i>
    <i name="pawaedc"> -96483.81758221 </i>
    <i name="eentropy">     -0.00000000 </i>
    <i name="bandstr">  -5550.10547652 </i>
    <i name="atom">  34968.35250874 </i>
    <i name="e_fr_energy">   -842.98195696 </i>
    <i name="e_wo_entrp">   -842.98195696 </i>
    <i name="e_0_energy">   -842.98195696 </i>
   </energy>
  </scstep>
  <scstep>
   <time name="dav">    2.43    2.44</time>
   <time name="total">    2.54    2.56</time>
   <energy>
    <i name="e_fr_energy">   -868.75922898 </i>
    <i name="e_wo_entrp">   -868.75922898 </i>
    <i name="e_0_energy">   -868.75922898 </i>
   </energy>
  </scstep>
  <scstep>
   <time name="dav">    2.14    2.15</time>
   <time name="total">    2.25    2.27</time>
   <energy>
    <i name="e_fr_energy">   -864.56219931 </i>
    <i name="e_wo_entrp">   -864.56219910 </i>
    <i name="e_0_energy">   -864.56219921 </i>
   </energy>
  </scstep>
  <scstep>
   <time name="dav">    2.11    2.13</time>
   <time name="total">    2.22    2.24</time>
   <energy>
    <i name="e_fr_energy">   -863.77933657 </i>
    <i name="e_wo_entrp">   -863.77697260 </i>
    <i name="e_0_energy">   -863.77815458 </i>
   </energy>
  </scstep>
  <scstep>
   <time name="dav">    2.41    2.43</time>
   <time name="total">    2.52    2.54</time>
   <energy>
    <i name="e_fr_energy">   -864.31905697 </i>
    <i name="e_wo_entrp">   -864.31905687 </i>
    <i name="e_0_energy">   -864.31905692 </i>
   </energy>
  </scstep>
  <scstep>
   <time name="dav">    2.28    2.29</time>
   <time name="total">    2.39    2.41</time>
   <energy>
    <i name="e_fr_energy">   -864.05664353 </i>
    <i name="e_wo_entrp">   -864.05664033 </i>
    <i name="e_0_energy">   -864.05664193 </i>
   </energy>
  </scstep>
  <scstep>
   <time name="dav">    2.27    2.28</time>
   <time name="total">    2.38    2.40</time>
   <energy>
    <i name="e_fr_energy">   -863.24661110 </i>
    <i name="e_wo_entrp">   -863.21327326 </i>
    <i name="e_0_energy">   -863.22994218 </i>
   </energy>
  </scstep>
  <scstep>
   <time name="dav">    2.13    2.14</time>
   <time name="total">    2.24    2.26</time>
   <energy>
    <i name="e_fr_energy">   -863.28035338 </i>
    <i name="e_wo_entrp">   -863.23900056 </i>
    <i name="e_0_energy">   -863.25967697 </i>
   </energy>
  </scstep>
  <scstep>
   <time name="dav">    2.30    2.31</time>
   <time name="total">    2.41    2.43</time>
   <energy>
    <i name="e_fr_energy">   -863.28291508 </i>
    <i name="e_wo_entrp">   -863.23733550 </i>
    <i name="e_0_energy">   -863.26012529 </i>
   </energy>
  </scstep>
  <scstep>
   <time name="dav">    2.11    2.12</time>
   <time name="total">    2.22    2.24</time>
   <energy>
    <i name="e_fr_energy">   -863.27413419 </i>
    <i name="e_wo_entrp">   -863.22559589 </i>
    <i name="e_0_energy">   -863.24986504 </i>
   </energy>
  </scstep>
  <scstep>
   <time name="dav">    2.37    2.38</time>
   <time name="total">    2.48    2.50</time>
   <energy>
    <i name="e_fr_energy">   -863.27458322 </i>
    <i name="e_wo_entrp">   -863.22196599 </i>
    <i name="e_0_energy">   -863.24827461 </i>
   </energy>
  </scstep>
  <scstep>
   <time name="dav">    2.16    2.18</time>
   <time name="total">    2.28    2.29</time>
   <energy>
    <i name="e_fr_energy">   -863.27317541 </i>
    <i name="e_wo_entrp">   -863.21753639 </i>
    <i name="e_0_energy">   -863.24535590 </i>
   </energy>
  </scstep>
  <scstep>
   <time name="dav">    2.48    2.50</time>
   <time name="total">    2.59    2.61</time>
   <energy>
    <i name="e_fr_energy">   -863.27377434 </i>
    <i name="e_wo_entrp">   -863.21838531 </i>
    <i name="e_0_energy">   -863.24607983 </i>
   </energy>
  </scstep>
  <scstep>
   <time name="dav">    2.12    2.13</time>
   <time name="total">    2.24    2.26</time>
   <energy>
    <i name="e_fr_energy">   -863.27226332 </i>
    <i name="e_wo_entrp">   -863.21497422 </i>
    <i name="e_0_energy">   -863.24361877 </i>
   </energy>
  </scstep>
  <scstep>
   <time name="dav">    2.16    2.17</time>
   <time name="total">    2.27    2.29</time>
   <energy>
    <i name="e_fr_energy">   -863.27270572 </i>
    <i name="e_wo_entrp">   -863.21508918 </i>
    <i name="e_0_energy">   -863.24389745 </i>
   </energy>
  </scstep>
  <scstep>
   <time name="dav">    2.14    2.15</time>
   <time name="total">    2.25    2.27</time>
   <energy>
    <i name="e_fr_energy">   -863.27265778 </i>
    <i name="e_wo_entrp">   -863.21513409 </i>
    <i name="e_0_energy">   -863.24389594 </i>
   </energy>
  </scstep>
  <scstep>
   <time name="dav">    2.09    2.10</time>
   <time name="total">    2.20    2.22</time>
   <energy>
    <i name="e_fr_energy">   -863.27283510 </i>
    <i name="e_wo_entrp">   -863.21500970 </i>
    <i name="e_0_energy">   -863.24392240 </i>
   </energy>
  </scstep>
  <scstep>
   <time name="dav">    2.12    2.14</time>
   <time name="total">    2.23    2.25</time>
   <energy>
    <i name="e_fr_energy">   -863.27297469 </i>
    <i name="e_wo_entrp">   -863.21550852 </i>
    <i name="e_0_energy">   -863.24424160 </i>
   </energy>
  </scstep>
  <scstep>
   <time name="dav">    2.41    2.42</time>
   <time name="total">    2.52    2.54</time>
   <energy>
    <i name="e_fr_energy">   -863.27298847 </i>
[...]
       <r>   -18.4900     0.0001   144.0000 </r>
       <r>   -18.3819     0.0000   144.0000 </r>
       <r>   -18.2738     0.0000   144.0000 </r>
       <r>   -18.1657     0.0000   144.0000 </r>
       <r>   -18.0576     0.0000   144.0000 </r>
       <r>   -17.9495     0.0000   144.0000 </r>
       <r>   -17.8414     0.0000   144.0000 </r>
       <r>   -17.7333     0.0000   144.0000 </r>
       <r>   -17.6252     0.0000   144.0000 </r>
       <r>   -17.5171     0.0000   144.0000 </r>
       <r>   -17.4090     0.0000   144.0000 </r>
       <r>   -17.3009     0.0000   144.0000 </r>
       <r>   -17.1928     0.0000   144.0000 </r>
       <r>   -17.0847     0.0000   144.0000 </r>
       <r>   -16.9766     0.0000   144.0000 </r>
       <r>   -16.8685     0.0000   144.0000 </r>
       <r>   -16.7604     0.0000   144.0000 </r>
       <r>   -16.6523     0.0000   144.0000 </r>
       <r>   -16.5442     0.0000   144.0000 </r>
       <r>   -16.4361     0.0000   144.0000 </r>
       <r>   -16.3280     0.0000   144.0000 </r>
       <r>   -16.2199     0.0000   144.0000 </r>
       <r>   -16.1118     0.0000   144.0000 </r>
       <r>   -16.0038     0.0000   144.0000 </r>
       <r>   -15.8957     0.0000   144.0000 </r>
       <r>   -15.7876     0.0000   144.0000 </r>
       <r>   -15.6795     0.0000   144.0000 </r>
       <r>   -15.5714     0.0000   144.0000 </r>
       <r>   -15.4633     0.0000   144.0000 </r>
       <r>   -15.3552     0.0000   144.0000 </r>
       <r>   -15.2471     0.0000   144.0000 </r>
       <r>   -15.1390     0.0000   144.0000 </r>
       <r>   -15.0309     0.0000   144.0000 </r>
       <r>   -14.9228     0.0000   144.0000 </r>
       <r>   -14.8147     0.0000   144.0000 </r>
       <r>   -14.7066     0.0000   144.0000 </r>
       <r>   -14.5985     0.0000   144.0000 </r>
       <r>   -14.4904     0.0000   144.0000 </r>
       <r>   -14.3823     0.0000   144.0000 </r>
       <r>   -14.2742     0.0000   144.0000 </r>
       <r>   -14.1661     0.0000   144.0000 </r>
       <r>   -14.0580     0.0000   144.0000 </r>
       <r>   -13.9499     0.0000   144.0000 </r>
       <r>   -13.8418     0.0000   144.0000 </r>
       <r>   -13.7337     0.0091   144.0010 </r>
       <r>   -13.6256     0.7072   144.0774 </r>
       <r>   -13.5175     6.8009   144.8126 </r>
       <r>   -13.4094     9.1670   145.8035 </r>
       <r>   -13.3013     1.7733   145.9952 </r>
       <r>   -13.1932     0.0442   146.0000 </r>
       <r>   -13.0851     0.0001   146.0000 </r>
       <r>   -12.9770     0.0000   146.0000 </r>
       <r>   -12.8689     0.0000   146.0000 </r>
       <r>   -12.7608     0.0000   146.0000 </r>
       <r>   -12.6527     0.0000   146.0000 </r>
       <r>   -12.5446     0.0001   146.0000 </r>
       <r>   -12.4365     0.0306   146.0033 </r>
       <r>   -12.3284     1.4412   146.1591 </r>
       <r>   -12.2203     8.6674   147.0960 </r>
       <r>   -12.1122     7.4460   147.9009 </r>
       <r>   -12.0041     0.9028   147.9985 </r>
       <r>   -11.8961     0.0447   148.0034 </r>
       <r>   -11.7880     1.6734   148.1843 </r>
       <r>   -11.6799    13.1413   149.6048 </r>
       <r>   -11.5718    18.6934   151.6255 </r>
       <r>   -11.4637    15.3628   153.2862 </r>
       <r>   -11.3556    25.1949   156.0097 </r>
       <r>   -11.2475    24.7323   158.6832 </r>
       <r>   -11.1394    11.4130   159.9169 </r>
       <r>   -11.0313     5.7497   160.5384 </r>
       <r>   -10.9232    15.5959   162.2243 </r>
       <r>   -10.8151    15.2740   163.8754 </r>
       <r>   -10.7070    19.0968   165.9397 </r>
       <r>   -10.5989    38.6679   170.1196 </r>
       <r>   -10.4908    42.3328   174.6956 </r>
       <r>   -10.3827    29.6909   177.9051 </r>
       <r>   -10.2746    24.4195   180.5448 </r>
       <r>   -10.1665    13.9552   182.0533 </r>
       <r>   -10.0584    10.1023   183.1454 </r>
       <r>    -9.9503     8.8715   184.1044 </r>
       <r>    -9.8422    16.0729   185.8418 </r>
       <r>    -9.7341    31.3623   189.2320 </r>
       <r>    -9.6260    29.4309   192.4134 </r>
       <r>    -9.5179    25.7530   195.1972 </r>
       <r>    -9.4098    19.2096   197.2737 </r>
       <r>    -9.3017    10.2263   198.3792 </r>
       <r>    -9.1936    18.2321   200.3500 </r>
       <r>    -9.0855    23.2611   202.8645 </r>
       <r>    -8.9774     9.6395   203.9065 </r>
       <r>    -8.8693     1.1667   204.0326 </r>
       <r>    -8.7612     7.1771   204.8084 </r>
       <r>    -8.6531    27.8984   207.8242 </r>
       <r>    -8.5450    36.0947   211.7259 </r>
       <r>    -8.4369    42.7444   216.3465 </r>
       <r>    -8.3288    57.8657   222.6016 </r>
       <r>    -8.2207    66.5330   229.7936 </r>
       <r>    -8.1126    72.7593   237.6587 </r>
       <r>    -8.0045    64.1368   244.5917 </r>
       <r>    -7.8964    73.9848   252.5893 </r>
       <r>    -7.7884    88.8304   262.1916 </r>
       <r>    -7.6803    64.0522   269.1155 </r>
       <r>    -7.5722    37.3943   273.1577 </r>
       <r>    -7.4641    31.6995   276.5843 </r>
       <r>    -7.3560    35.4530   280.4167 </r>
       <r>    -7.2479    35.7759   284.2840 </r>
       <r>    -7.1398    25.7065   287.0628 </r>
       <r>    -7.0317    16.6564   288.8633 </r>
       <r>    -6.9236     9.1839   289.8561 </r>
       <r>    -6.8155     1.3063   289.9973 </r>
       <r>    -6.7074     0.1189   290.0101 </r>
       <r>    -6.5993     2.6704   290.2988 </r>
       <r>    -6.4912    11.0229   291.4903 </r>
       <r>    -6.3831    17.6270   293.3958 </r>
       <r>    -6.2750    27.9131   296.4131 </r>
       <r>    -6.1669    27.7600   299.4139 </r>
       <r>    -6.0588    44.8676   304.2640 </r>
       <r>    -5.9507    63.2319   311.0992 </r>
       <r>    -5.8426    80.7234   319.8251 </r>
       <r>    -5.7345    73.1520   327.7327 </r>
       <r>    -5.6264    61.6398   334.3958 </r>
       <r>    -5.5183    50.0747   339.8087 </r>
       <r>    -5.4102    38.6425   343.9859 </r>
       <r>    -5.3021    22.4751   346.4154 </r>
       <r>    -5.1940    33.9869   350.0893 </r>
       <r>    -5.0859    53.4610   355.8683 </r>
       <r>    -4.9778    74.0668   363.8747 </r>
       <r>    -4.8697    82.6338   372.8072 </r>
       <r>    -4.7616    63.4965   379.6710 </r>
       <r>    -4.6535    73.7760   387.6460 </r>
       <r>    -4.5454   119.6497   400.5798 </r>
       <r>    -4.4373   148.4719   416.6292 </r>
       <r>    -4.3292   150.7133   432.9209 </r>
       <r>    -4.2211   143.3981   448.4219 </r>
       <r>    -4.1130   128.9309   462.3590 </r>
       <r>    -4.0049   122.5658   475.6080 </r>
       <r>    -3.8968   125.1949   489.1412 </r>
       <r>    -3.7887   113.9806   501.4623 </r>
       <r>    -3.6807    93.9960   511.6230 </r>
       <r>    -3.5726    74.7794   519.7064 </r>
       <r>    -3.4645    48.9139   524.9939 </r>
       <r>    -3.3564    33.4751   528.6125 </r>
       <r>    -3.2483    49.8863   534.0050 </r>
       <r>    -3.1402    58.8602   540.3677 </r>
       <r>    -3.0321    70.2536   547.9619 </r>
       <r>    -2.9240   101.1621   558.8973 </r>
       <r>    -2.8159    88.0857   568.4191 </r>
       <r>    -2.7078    50.0888   573.8336 </r>
       <r>    -2.5997    33.9374   577.5021 </r>
       <r>    -2.4916    19.1331   579.5703 </r>
       <r>    -2.3835     9.7655   580.6260 </r>
       <r>    -2.2754    10.0741   581.7149 </r>
       <r>    -2.1673     2.5503   581.9906 </r>
       <r>    -2.0592     0.0864   582.0000 </r>
       <r>    -1.9511     0.0003   582.0000 </r>
       <r>    -1.8430     0.0000   582.0000 </r>
       <r>    -1.7349     0.0000   582.0000 </r>
       <r>    -1.6268     0.0000   582.0000 </r>
       <r>    -1.5187     0.0000   582.0000 </r>
       <r>    -1.4106     0.0000   582.0000 </r>
       <r>    -1.3025     0.0000   582.0000 </r>
       <r>    -1.1944     0.0000   582.0000 </r>
       <r>    -1.0863     0.0000   582.0000 </r>
       <r>    -0.9782     0.0000   582.0000 </r>
       <r>    -0.8701     0.0000   582.0000 </r>
       <r>    -0.7620     0.0000   582.0000 </r>
       <r>    -0.6539     0.0000   582.0000 </r>
       <r>    -0.5458     0.0000   582.0000 </r>
       <r>    -0.4377     0.0000   582.0000 </r>
       <r>    -0.3296     0.0000   582.0000 </r>
       <r>    -0.2215     0.0000   582.0000 </r>
       <r>    -0.1134     0.0000   582.0000 </r>
       <r>    -0.0053     0.0000   582.0000 </r>
       <r>     0.1028     0.0000   582.0000 </r>
       <r>     0.2109     0.0000   582.0000 </r>
       <r>     0.3190     0.0000   582.0000 </r>
       <r>     0.4270     0.0000   582.0000 </r>
       <r>     0.5351     0.0000   582.0000 </r>
       <r>     0.6432     0.0000   582.0000 </r>
       <r>     0.7513     0.0000   582.0000 </r>
       <r>     0.8594     0.0000   582.0000 </r>
       <r>     0.9675     0.0000   582.0000 </r>
       <r>     1.0756     0.0000   582.0000 </r>
       <r>     1.1837     0.0000   582.0000 </r>
       <r>     1.2918     0.0000   582.0000 </r>
       <r>     1.3999     0.0000   582.0000 </r>
       <r>     1.5080     0.0000   582.0000 </r>
       <r>     1.6161     0.0000   582.0000 </r>
       <r>     1.7242     0.0000   582.0000 </r>
       <r>     1.8323     0.0000   582.0000 </r>
       <r>     1.9404     0.0000   582.0000 </r>
       <r>     2.0485     0.0000   582.0000 </r>
       <r>     2.1566     0.0000   582.0000 </r>
       <r>     2.2647     0.0000   582.0000 </r>
       <r>     2.3728     0.0000   582.0000 </r>
       <r>     2.4809     0.0000   582.0000 </r>
       <r>     2.5890     0.0001   582.0000 </r>
       <r>     2.6971     0.0373   582.0040 </r>
       <r>     2.8052     1.6120   582.1783 </r>
       <r>     2.9133     8.9427   583.1450 </r>
       <r>     3.0214     7.1049   583.9130 </r>
       <r>     3.1295     0.7938   583.9988 </r>
       <r>     3.2376     0.0110   584.0000 </r>
       <r>     3.3457     0.0000   584.0000 </r>
       <r>     3.4538     0.0023   584.0002 </r>
       <r>     3.5619     0.3046   584.0332 </r>
       <r>     3.6700     5.3548   584.6120 </r>
       <r>     3.7781    16.7832   586.4262 </r>
       <r>     3.8862    13.4492   587.8800 </r>
       <r>     3.9943     9.6996   588.9285 </r>
       <r>     4.1024    11.5301   590.1749 </r>
       <r>     4.2105    16.1775   591.9237 </r>
       <r>     4.3186    23.9385   594.5113 </r>
       <r>     4.4267    19.8319   596.6551 </r>
       <r>     4.5347    12.8799   598.0474 </r>
       <r>     4.6428    13.8502   599.5446 </r>
       <r>     4.7509    16.2101   601.2969 </r>
       <r>     4.8590     8.4592   602.2113 </r>
       <r>     4.9671    22.2154   604.6127 </r>
       <r>     5.0752    50.0951   610.0278 </r>
       <r>     5.1833    63.2899   616.8693 </r>
       <r>     5.2914    49.7432   622.2464 </r>
       <r>     5.3995    18.8060   624.2793 </r>
       <r>     5.5076    11.8744   625.5629 </r>
       <r>     5.6157    10.0983   626.6545 </r>
       <r>     5.7238    16.9356   628.4852 </r>
       <r>     5.8319    27.6214   631.4710 </r>
       <r>     5.9400    29.2982   634.6380 </r>
       <r>     6.0481    31.2962   638.0211 </r>
       <r>     6.1562    52.0451   643.6470 </r>
       <r>     6.2643    73.0887   651.5477 </r>
       <r>     6.3724    80.8168   660.2838 </r>
       <r>     6.4805    75.5352   668.4490 </r>
       <r>     6.5886    99.6893   679.2251 </r>
       <r>     6.6967   111.1203   691.2369 </r>
       <r>     6.8048    83.1839   700.2289 </r>
       <r>     6.9129    30.6549   703.5426 </r>
       <r>     7.0210     4.1072   703.9866 </r>
       <r>     7.1291     0.1238   703.9999 </r>
       <r>     7.2372     0.0005   704.0000 </r>
       <r>     7.3453     0.0000   704.0000 </r>
       <r>     7.4534     0.0000   704.0000 </r>
       <r>     7.5615     0.0000   704.0000 </r>
       <r>     7.6696     0.0000   704.0000 </r>
       <r>     7.7777     0.0000   704.0000 </r>
       <r>     7.8858     0.0000   704.0000 </r>
       <r>     7.9939     0.0000   704.0000 </r>
       <r>     8.1020     0.0000   704.0000 </r>
       <r>     8.2101     0.0000   704.0000 </r>
       <r>     8.3182     0.0000   704.0000 </r>
      </set>
     </set>
    </array>
   </total>
  </dos>
 </calculation>
 <structure name="finalpos" >
  <crystal>
   <varray name="basis" >
    <v>      13.72957181      -0.00462456      -0.00141144 </v>
    <v>      -6.86873914      11.89091482       0.00181973 </v>
    <v>      -0.00151065       0.00130727      14.89037843 </v>
   </varray>
   <i name="volume">   2430.48799023 </i>
   <varray name="rec_basis" >
    <v>       0.07284966       0.04208131       0.00000370 </v>
    <v>       0.00002833       0.08411419      -0.00000738 </v>
    <v>       0.00000690      -0.00000629       0.06715746 </v>
   </varray>
  </crystal>
  <varray name="positions" >
   <v>       0.55387300       0.66481658       0.56385675 </v>
   <v>       0.77794227       0.76833088       0.50342412 </v>
   <v>       0.80825618       0.79946375       0.43549548 </v>
   <v>       0.83699000       0.75168284       0.54035572 </v>
   <v>       0.76217411       0.82882484       0.53901930 </v>
   <v>       0.01558601       0.33218625       0.83377948 </v>
   <v>       0.20730348       0.41968812       0.53807952 </v>
   <v>       0.54756760       0.09503876       0.20346594 </v>
   <v>       0.87769514       0.75985255       0.86554123 </v>
   <v>       0.44823944       0.54580638       0.80269532 </v>
   <v>       0.12152151       0.87798277       0.13169241 </v>
   <v>       0.09149499       0.54649152       0.80054902 </v>
   <v>       0.43509135       0.21882516       0.46084932 </v>
   <v>       0.76125923       0.88043246       0.13642681 </v>
   <v>       0.21287664       0.78717017       0.53536101 </v>
   <v>       0.89946132       0.09865848       0.12413546 </v>
   <v>       0.23720622       0.11877600       0.86647796 </v>
   <v>       0.86877285       0.43308730       0.45165703 </v>
   <v>       0.43403271       0.87552034       0.54200439 </v>
   <v>       0.98229359       0.31550977       0.16495820 </v>
   <v>       0.65313325       0.00580804       0.50422569 </v>
   <v>      -0.00028400       0.64916777       0.49917838 </v>
   <v>       0.33168033       0.31294136       0.16689117 </v>
   <v>       0.98183603       0.66417831       0.16355181 </v>
   <v>       0.33791346       0.33507339       0.50141546 </v>
   <v>       0.68329300       0.01742034       0.16642824 </v>
   <v>       0.66310523       0.98060136       0.83502520 </v>
   <v>      -0.00248787       0.34863767       0.50133888 </v>
   <v>       0.78435307       0.21563964       0.46243280 </v>
   <v>       0.33493100       0.01843687       0.16463568 </v>
   <v>       0.90716483       0.45202856       0.20332009 </v>
   <v>       0.31122841       0.33202484       0.83358035 </v>
   <v>       0.44994430       0.90421290       0.79886588 </v>
   <v>       0.07026506       0.66423048       0.66612104 </v>
   <v>       0.66627847       0.06887828       0.33389380 </v>
   <v>       0.99614751       0.73972524      -0.00078956 </v>
   <v>       0.59148821       0.92846889       0.66793282 </v>
   <v>       0.92907092       0.59853858       0.33125593 </v>
   <v>       0.25752395       0.25721864      -0.00005049 </v>
   <v>       0.40921660       0.34042355       0.33344440 </v>
   <v>       0.78415654       0.56422532       0.46278107 </v>
   <v>       0.73784312       0.99555822       0.00090565 </v>
   <v>       0.56930117       0.79118598       0.53145075 </v>
   <v>       0.59473335       0.66187508       0.67239461 </v>
   <v>       0.25940020       0.00060104      -0.00061067 </v>
   <v>       0.06623056       0.40653069       0.66748118 </v>
   <v>       0.40079294       0.06819221       0.33300809 </v>
   <v>       0.33343923       0.40488421       0.66680939 </v>
   <v>       0.74552780       0.74430815       0.00237683 </v>
   <v>       0.54652568       0.45140383       0.19766568 </v>
   <v>       0.87662150       0.11871789       0.86859226 </v>
   <v>       0.32964564       0.92871731       0.66749084 </v>
   <v>       0.55904706       0.44069445       0.46459792 </v>
   <v>       0.66536675       0.58913137       0.33141253 </v>
   <v>       0.93229687       0.33134736       0.33254519 </v>
   <v>       0.34617740       0.00387389       0.50147052 </v>
   <v>       0.31388431       0.98134276       0.83420284 </v>
   <v>       0.90321453       0.80296629       0.12831246 </v>
   <v>       0.23126261       0.76545095       0.78978559 </v>
   <v>       0.11831112       0.23740862       0.13256168 </v>
   <v>       0.56406859       0.13052899       0.45480011 </v>
   <v>       0.23058760       0.46645284       0.78787839 </v>
   <v>       0.19673387       0.09681568       0.12485036 </v>
   <v>      -0.00097460       0.25937024      -0.00028741 </v>
   <v>       0.09715038       0.90046874       0.87608744 </v>
   <v>       0.79977526       0.89996591       0.87456197 </v>
   <v>       0.42898789       0.55232183       0.53078573 </v>
   <v>       0.53004342       0.76475901       0.79144787 </v>
   <v>       0.76577510       0.52915247       0.20840942 </v>
   <v>       0.13329141       0.56606751       0.54171240 </v>
   <v>       0.46685056       0.23327918       0.21284854 </v>
   <v>       0.66901463       0.66225480       0.49677954 </v>
   <v>       0.76661481       0.23306791       0.21222943 </v>
   <v>       0.66034335       0.68104776       0.84159239 </v>
   <v>       0.01546280       0.68447224       0.83241188 </v>
   <v>       0.09549984       0.19541073       0.87609927 </v>
   <v>       0.68631189       0.66638557       0.16678482 </v>
   <v>       0.55869590       0.89300419       0.77240101 </v>
   <v>      -0.00293368       0.77153879       0.89365018 </v>
   <v>       0.89626062       0.33214930       0.22852080 </v>
   <v>       0.77068037      -0.00153882       0.10611921 </v>
   <v>       0.10241463       0.43656270       0.56274442 </v>
   <v>       0.33125920       0.43778615       0.77150703 </v>
   <v>       0.00053450       0.77172042       0.10480831 </v>
   <v>       0.33132843       0.89446263       0.77197170 </v>
   <v>       0.22810948      -0.00103655       0.10472615 </v>
   <v>       0.22619603       0.22567702       0.10527697 </v>
   <v>       0.10181792       0.43790086       0.77222004 </v>
   <v>       0.66600653       0.10452756       0.43832701 </v>
   <v>      -0.00055733       0.22709494       0.10461392 </v>
   <v>       0.89609307       0.33175420       0.43650214 </v>
   <v>       0.33127753       0.89850911       0.56203065 </v>
   <v>       0.89767072       0.56120185       0.43562526 </v>
   <v>       0.10265294       0.66543271       0.77178323 </v>
   <v>       0.32860831       0.43114591       0.56018149 </v>
   <v>       0.89569252       0.56076744       0.22662978 </v>
   <v>       0.77474238       0.77404377       0.10758119 </v>
   <v>       0.66744743       0.55733368       0.43544752 </v>
   <v>       0.43379452       0.33336744       0.43956918 </v>
   <v>       0.10529637       0.66645268       0.56130752 </v>
   <v>       0.22634991      -0.00019344       0.89433192 </v>
   <v>       0.66616640       0.55865450       0.22506620 </v>
   <v>       0.55911152       0.66388197       0.77452163 </v>
   <v>       0.99708284       0.22636241       0.89446260 </v>
   <v>       0.77032019       0.77147915       0.89577795 </v>
   <v>       0.66633868       0.10395395       0.22948846 </v>
   <v>       0.22500755       0.22621916       0.89436612 </v>
   <v>       0.43773193       0.33333227       0.22821613 </v>
   <v>       0.76901608      -0.00184939       0.89495093 </v>
   <v>       0.56090731       0.89789964       0.56180986 </v>
   <v>       0.43760517       0.10391223       0.22885160 </v>
   <v>       0.43635679       0.10443929       0.43735670 </v>
  </varray>
 </structure>
</modeling>
