unknown system                          
           1
    13.729572   -0.004625   -0.001411
    -6.868739   11.890915    0.001820
    -0.001511    0.001307   14.890378
   Al   C    H    O    Si
   1   1   3  72  35
Direct configuration=     1
   0.56226675  0.66695774  0.56210364
   0.75590676  0.76049391  0.50360023
   0.80128767  0.85120349  0.50359345
   0.80125279  0.71516558  0.50361007
   0.66517982  0.71511266  0.50359718
   0.01866908  0.33415778  0.83400028
   0.21409633  0.42707628  0.53524471
   0.54684068  0.09367858  0.20255533
   0.88033373  0.76060205  0.86690236
   0.45307532  0.54735605  0.79899071
   0.12054702  0.87953215  0.13137146
   0.09356834  0.54704988  0.79753904
   0.42908437  0.21450775  0.46642178
   0.76014491  0.88009731  0.13310068
   0.21378515  0.78703006  0.53379068
   0.90028721  0.09915112  0.12387986
   0.23937203  0.11999702  0.86781467
   0.86357454  0.43151607  0.45676915
   0.43242939  0.86426723  0.54370028
   0.98229452  0.31530457  0.16694177
   0.64817130  0.99953414  0.49955176
   0.00043896  0.64720847  0.49975529
   0.33298125  0.31452668  0.16704582
   0.98098642  0.66644197  0.16658376
   0.35239198  0.35174152  0.50050091
   0.68385168  0.01788778  0.16566335
   0.66669377  0.98186541  0.83352303
   0.00116992  0.35335410  0.49925248
   0.78762049  0.21296121  0.46562061
   0.33373752  0.01849548  0.16668310
   0.90604538  0.45293233  0.20052744
   0.31495955  0.33394208  0.83414386
   0.45343721  0.90696615  0.79859222
   0.07328832  0.66873069  0.66657635
   0.66878397  0.07248771  0.33291341
   0.99839898  0.73872197  0.99995682
   0.59484588  0.92882677  0.66664679
   0.92775304  0.59328347  0.33317011
   0.26044392  0.26022676  0.00041043
   0.40496547  0.33173231  0.33375974
   0.78717796  0.57370545  0.46504080
   0.73962094  0.99881333  0.99981828
   0.57346146  0.78656886  0.53553586
   0.59502641  0.66649762  0.66714202
   0.26173374  0.00093142  0.99988745
   0.07171686  0.40445488  0.66663892
   0.40502615  0.07341303  0.33357486
   0.33388493  0.40556150  0.66715660
   0.74130148  0.74157771  0.99990420
   0.54626077  0.45356368  0.20249386
   0.88005958  0.12063688  0.86801315
   0.33290645  0.92704622  0.66660571
   0.56813333  0.43345568  0.45573462
   0.66787315  0.59620520  0.33318521
   0.92707692  0.33365692  0.33309150
   0.35337550  0.00075342  0.50030064
   0.31507762  0.98219159  0.83302738
   0.90175571  0.80301538  0.12424376
   0.23451294  0.76604255  0.79065746
   0.11938162  0.23874371  0.13244245
   0.56886513  0.13557705  0.45505081
   0.23426633  0.46883248  0.78952332
   0.19789636  0.09842721  0.12373094
   0.00001922  0.26079870  0.00040007
   0.09929620  0.90094046  0.87711490
   0.80289743  0.90184265  0.87522089
   0.43312280  0.56754296  0.54387454
   0.53149813  0.76617893  0.78927568
   0.76513887  0.53069600  0.21050735
   0.13681379  0.56845723  0.54503361
   0.46898042  0.23467224  0.20963910
   0.64913284  0.64895484  0.50026552
   0.76597739  0.23394914  0.20912494
   0.66631742  0.68549264  0.83419044
   0.01850874  0.68504333  0.83354036
   0.09893653  0.19841567  0.87681325
   0.68535530  0.66617265  0.16567902
   0.56160226  0.89548670  0.77161425
   0.99963954  0.77178059  0.89479173
   0.89488496  0.33352588  0.22786143
   0.77144754  0.99942864  0.10518678
   0.10592703  0.43874517  0.56189606
   0.33357859  0.43886748  0.77206256
   0.00004570  0.77197853  0.10511512
   0.33358113  0.89516793  0.77182313
   0.22843925  0.99974974  0.10499738
   0.22769218  0.22754836  0.10550695
   0.10497779  0.43863490  0.77151563
   0.66790209  0.10513258  0.43790817
   0.00006699  0.22803651  0.10547304
   0.89486199  0.33327201  0.43832718
   0.33354587  0.89477868  0.56149855
   0.89471565  0.56103274  0.43828992
   0.10537040  0.66709381  0.77164668
   0.33375432  0.43838063  0.56208668
   0.89452606  0.56088599  0.22808763
   0.77256536  0.77270690  0.10534218
   0.66765425  0.56266940  0.43814029
   0.43903444  0.33331600  0.43871159
   0.10601279  0.66735158  0.56164940
   0.22845574  0.00058940  0.89487405
   0.66657228  0.56165633  0.22836123
   0.56149853  0.66686609  0.77198996
   0.99987949  0.22851408  0.89520799
   0.77276445  0.77281234  0.89450369
   0.66676104  0.10493668  0.22800227
   0.22801816  0.22811264  0.89521057
   0.43835039  0.33325187  0.22863568
   0.77236684  0.00040877  0.89457899
   0.56181870  0.89478902  0.56175798
   0.43865925  0.10549905  0.22850692
   0.43951841  0.10602589  0.43844766
Direct configuration=     2
   0.53501330  0.66108275  0.58298694
   0.80791974  0.77742082  0.50569140
   0.79458913  0.85258133  0.49988157
   0.80861175  0.72320195  0.50693360
   0.66630943  0.77919860  0.50099204
   0.01849916  0.33404408  0.83409218
   0.21230296  0.42623766  0.53513073
   0.54677062  0.09375533  0.20255429
   0.88084378  0.76063788  0.86708160
   0.45164308  0.54603700  0.79980039
   0.12046513  0.87943092  0.13149960
   0.09341785  0.54717196  0.79753635
   0.42971655  0.21562758  0.46629735
   0.76010978  0.87990764  0.13330117
   0.21320453  0.78675696  0.53364884
   0.90036146  0.09917923  0.12397887
   0.23936858  0.11986463  0.86789294
   0.86308715  0.43255707  0.45676015
   0.43159605  0.86461705  0.54363608
   0.98223664  0.31546696  0.16708595
   0.64898594  0.00125469  0.49889167
  -0.00106260  0.64684701  0.49918789
   0.33341597  0.31477953  0.16735679
   0.98070242  0.66604222  0.16693450
   0.35331132  0.35030786  0.49935868
   0.68379701  0.01793371  0.16579089
   0.66710061  0.98232254  0.83382848
   0.00048454  0.35318768  0.49892021
   0.78789012  0.21344100  0.46554439
   0.33385994  0.01860249  0.16679843
   0.90597148  0.45329945  0.20066297
   0.31459248  0.33327673  0.83451555
   0.45297139  0.90715923  0.79867279
   0.07302763  0.66866357  0.66619782
   0.66881060  0.07259860  0.33277544
   0.99842818  0.73865135  0.00033303
   0.59481963  0.92941230  0.66683911
   0.92713753  0.59330518  0.33396304
   0.26047450  0.26020617  0.00081047
   0.40572831  0.33224393  0.33416021
   0.78291692  0.57275742  0.46597846
   0.73964012  0.99888526  0.00023633
   0.57576398  0.79894723  0.53109056
   0.59756007  0.66550686  0.67881861
   0.26175108  0.00093688  0.00015489
   0.07143683  0.40443456  0.66653684
   0.40502040  0.07355449  0.33359456
   0.33318269  0.40457810  0.66752306
   0.74139056  0.74153203  0.00076888
   0.54686682  0.45419944  0.20292529
   0.88023186  0.12085392  0.86808800
   0.33273369  0.92713338  0.66645949
   0.57247402  0.43955474  0.45709534
   0.66732060  0.59662654  0.33677163
   0.92705143  0.33383878  0.33314699
   0.35338956  0.00125105  0.50002834
   0.31499665  0.98230359  0.83314019
   0.90172415  0.80289158  0.12444539
   0.23427190  0.76592369  0.79061439
   0.11946862  0.23878936  0.13256949
   0.56871942  0.13593163  0.45496537
   0.23359308  0.46867648  0.78962094
   0.19791166  0.09844783  0.12384145
   0.00004515  0.26085735  0.00068711
   0.09933739  0.90095731  0.87720537
   0.80316578  0.90220198  0.87549321
   0.42094021  0.55452636  0.54077691
   0.53126506  0.76733270  0.78996815
   0.76458578  0.53072866  0.21103296
   0.13639974  0.56875004  0.54486795
   0.46912748  0.23508663  0.20974129
   0.62589715  0.57479894  0.48778590
   0.76605416  0.23418020  0.20916223
   0.66766622  0.68614336  0.83585903
   0.01846437  0.68499016  0.83354959
   0.09885457  0.19833148  0.87692989
   0.68498662  0.66543259  0.16649856
   0.56153142  0.89405573  0.77119072
   0.99932465  0.77182962  0.89446841
   0.89495436  0.33310821  0.22773872
   0.77138184  0.99947550  0.10476073
   0.10721130  0.43876679  0.56215223
   0.33506047  0.44020824  0.77153687
   0.00020852  0.77228731  0.10462874
   0.33410448  0.89512117  0.77184691
   0.22846618  0.99975612  0.10469286
   0.22745110  0.22744366  0.10504515
   0.10562137  0.43872116  0.77151174
   0.66758828  0.10419787  0.43839471
   0.00004081  0.22797602  0.10517393
   0.89523984  0.33250961  0.43851382
   0.33435245  0.89449294  0.56182416
   0.89810742  0.56051850  0.43784519
   0.10564797  0.66707096  0.77191177
   0.33685187  0.44371450  0.56227848
   0.89520596  0.56093061  0.22729591
   0.77288037  0.77334802  0.10440757
   0.67036536  0.54946858  0.42516630
   0.43391942  0.33032239  0.43922467
   0.10730699  0.66750896  0.56234971
   0.22848324  0.00062377  0.89461877
   0.66653854  0.56148322  0.22591273
   0.56312837  0.66676526  0.76720249
   0.99982250  0.22843541  0.89492474
   0.77145077  0.77206530  0.89336160
   0.66672440  0.10465954  0.22803736
   0.22825938  0.22854443  0.89474400
   0.43763515  0.33249427  0.22802860
   0.77196621 -0.00008488  0.89405612
   0.56223702  0.89185498  0.56139656
   0.43854967  0.10503986  0.22839605
   0.43950019  0.10508752  0.43855807
Direct configuration=     3
   0.55383854  0.66514088  0.56856187
   0.77199193  0.76572861  0.50424693
   0.79921612  0.85162959  0.50244554
   0.80352857  0.71765085  0.50463788
   0.66552916  0.73493143  0.50279153
   0.01861653  0.33412261  0.83402870
   0.21354172  0.42681693  0.53520946
   0.54681901  0.09370231  0.20255501
   0.88049147  0.76061313  0.86695779
   0.45263240  0.54694813  0.79924111
   0.12052170  0.87950084  0.13141109
   0.09352180  0.54708764  0.79753821
   0.42927987  0.21485406  0.46638330
   0.76013405  0.88003865  0.13316268
   0.21360559  0.78694560  0.53374682
   0.90031017  0.09915981  0.12391048
   0.23937096  0.11995608  0.86783887
   0.86342381  0.43183800  0.45676637
   0.43217167  0.86437542  0.54368042
   0.98227662  0.31535479  0.16698636
   0.64842323  0.00006622  0.49934763
  -0.00002540  0.64709669  0.49957982
   0.33311569  0.31460488  0.16714199
   0.98089859  0.66631835  0.16669223
   0.35267628  0.35129816  0.50014767
   0.68383477  0.01790198  0.16570279
   0.66681959  0.98200678  0.83361749
   0.00095797  0.35330263  0.49914973
   0.78770388  0.21310958  0.46559704
   0.33377538  0.01852857  0.16671877
   0.90602252  0.45304586  0.20056935
   0.31484603  0.33373632  0.83425881
   0.45329315  0.90702586  0.79861714
   0.07320770  0.66870993  0.66645929
   0.66879221  0.07252200  0.33287074
   0.99840801  0.73870013  0.00007316
   0.59483776  0.92900785  0.66670627
   0.92756269  0.59329019  0.33341533
   0.26045338  0.26022039  0.00053414
   0.40520138  0.33189053  0.33388358
   0.78586022  0.57341227  0.46533078
   0.73962687  0.99883557 -0.00005244
   0.57417352  0.79039691  0.53416114
   0.59580995  0.66619123  0.67075304
   0.26173911  0.00093311 -0.00002984
   0.07163026  0.40444859  0.66660735
   0.40502437  0.07345678  0.33358095
   0.33366776  0.40525738  0.66726993
   0.74132903  0.74156358  0.00017160
   0.54644819  0.45376029  0.20262728
   0.88011286  0.12070400  0.86803630
   0.33285302  0.92707318  0.66656049
   0.56947570  0.43534183  0.45615543
   0.66770227  0.59633550  0.33429432
   0.92706903  0.33371316  0.33310866
   0.35337985  0.00090732  0.50021643
   0.31505258  0.98222622  0.83306227
   0.90174595  0.80297709  0.12430612
   0.23443840  0.76600579  0.79064414
   0.11940852  0.23875783  0.13248174
   0.56882007  0.13568671  0.45502439
   0.23405812  0.46878424  0.78955351
   0.19790109  0.09843358  0.12376512
   0.00002724  0.26081684  0.00048884
   0.09930894  0.90094567  0.87714288
   0.80298042  0.90195377  0.87530511
   0.42935530  0.56351754  0.54291659
   0.53142605  0.76653574  0.78948983
   0.76496783  0.53070610  0.21066990
   0.13668575  0.56854778  0.54498238
   0.46902589  0.23480039  0.20967070
   0.64194713  0.62602190  0.49640616
   0.76600113  0.23402059  0.20913647
   0.66673454  0.68569388  0.83470645
   0.01849502  0.68502689  0.83354321
   0.09891118  0.19838964  0.87684932
   0.68524129  0.66594378  0.16593246
   0.56158036  0.89504417  0.77148327
   0.99954216  0.77179575  0.89469174
   0.89490643  0.33339672  0.22782348
   0.77142722  0.99944313  0.10505503
   0.10632419  0.43875186  0.56197528
   0.33403686  0.43928212  0.77189999
   0.00009605  0.77207402  0.10496471
   0.33374298  0.89515347  0.77183049
   0.22844758  0.99975171  0.10490321
   0.22761763  0.22751598  0.10536414
   0.10517682  0.43866158  0.77151443
   0.66780504  0.10484351  0.43805864
   0.00005889  0.22801781  0.10538054
   0.89497884  0.33303623  0.43838490
   0.33379530  0.89469032  0.56159925
   0.89576457  0.56087371  0.43815239
   0.10545624  0.66708675  0.77172866
   0.33471225  0.44003014  0.56214600
   0.89473632  0.56089979  0.22784279
   0.77266278  0.77290517  0.10505315
   0.66849267  0.55858701  0.43412805
   0.43745261  0.33239022  0.43887026
   0.10641302  0.66740025  0.56186597
   0.22846424  0.00060003  0.89479510
   0.66656184  0.56160279  0.22760402
   0.56200256  0.66683490  0.77050942
   0.99986187  0.22848975  0.89512039
   0.77235819  0.77258132  0.89415049
   0.66674971  0.10485098  0.22801312
   0.22809276  0.22824617  0.89506628
   0.43812920  0.33301758  0.22844794
   0.77224295  0.00025611  0.89441730
   0.56194807  0.89388166  0.56164621
   0.43862536  0.10535705  0.22847263
   0.43951277  0.10573570  0.43848180
Direct configuration=     4
   0.55424951  0.66522948  0.56824695
   0.77120759  0.76547335  0.50421540
   0.79931714  0.85160881  0.50250151
   0.80341760  0.71752966  0.50458777
   0.66551212  0.73396503  0.50283082
   0.01861909  0.33412433  0.83402731
   0.21356877  0.42682958  0.53521118
   0.54682007  0.09370115  0.20255502
   0.88048377  0.76061259  0.86695509
   0.45265399  0.54696802  0.79922890
   0.12052293  0.87950237  0.13140916
   0.09352407  0.54708580  0.79753825
   0.42927034  0.21483718  0.46638517
   0.76013458  0.88004151  0.13315966
   0.21361435  0.78694972  0.53374896
   0.90030906  0.09915939  0.12390899
   0.23937102  0.11995808  0.86783769
   0.86343116  0.43182230  0.45676650
   0.43218424  0.86437014  0.54368139
   0.98227749  0.31535234  0.16698418
   0.64841095  0.00004028  0.49935758
  -0.00000276  0.64710214  0.49958838
   0.33310913  0.31460106  0.16713730
   0.98090288  0.66632438  0.16668694
   0.35266242  0.35131978  0.50016490
   0.68383560  0.01790129  0.16570087
   0.66681345  0.98199988  0.83361288
   0.00096830  0.35330514  0.49915474
   0.78769981  0.21310235  0.46559819
   0.33377354  0.01852696  0.16671703
   0.90602364  0.45304032  0.20056731
   0.31485157  0.33374635  0.83425320
   0.45330018  0.90702295  0.79861592
   0.07321163  0.66871095  0.66646500
   0.66879180  0.07252033  0.33287282
   0.99840757  0.73870119  0.00006749
   0.59483816  0.92899902  0.66670337
   0.92757198  0.59328986  0.33340337
   0.26045292  0.26022070  0.00052811
   0.40518988  0.33188281  0.33387754
   0.78592448  0.57342657  0.46531664
   0.73962658  0.99883449 -0.00005874
   0.57413880  0.79021025  0.53422817
   0.59577175  0.66620617  0.67057696
   0.26173885  0.00093303 -0.00003387
   0.07163448  0.40444890  0.66660889
   0.40502446  0.07345465  0.33358065
   0.33367835  0.40527221  0.66726440
   0.74132769  0.74156427  0.00015857
   0.54643906  0.45375070  0.20262077
   0.88011026  0.12070072  0.86803517
   0.33285563  0.92707186  0.66656270
   0.56941024  0.43524986  0.45613491
   0.66771060  0.59632915  0.33424024
   0.92706942  0.33371042  0.33310782
   0.35337963  0.00089981  0.50022054
   0.31505380  0.98222453  0.83306057
   0.90174642  0.80297896  0.12430308
   0.23444203  0.76600758  0.79064479
   0.11940721  0.23875714  0.13247982
   0.56882227  0.13568136  0.45502567
   0.23406827  0.46878659  0.78955204
   0.19790086  0.09843327  0.12376345
   0.00002685  0.26081595  0.00048451
   0.09930832  0.90094542  0.87714151
   0.80297638  0.90194835  0.87530100
   0.42953901  0.56371383  0.54296330
   0.53142957  0.76651834  0.78947939
   0.76497617  0.53070561  0.21066197
   0.13669199  0.56854337  0.54498488
   0.46902368  0.23479414  0.20966916
   0.64229752  0.62714016  0.49659435
   0.76599997  0.23401711  0.20913591
   0.66671421  0.68568407  0.83468129
   0.01849569  0.68502769  0.83354307
   0.09891242  0.19839091  0.87684757
   0.68524685  0.66595494  0.16592010
   0.56158142  0.89506575  0.77148966
   0.99954691  0.77179501  0.89469662
   0.89490538  0.33340302  0.22782533
   0.77142821  0.99944242  0.10506145
   0.10630483  0.43875153  0.56197142
   0.33401452  0.43926190  0.77190791
   0.00009360  0.77206937  0.10497204
   0.33373509  0.89515417  0.77183013
   0.22844717  0.99975162  0.10490780
   0.22762126  0.22751756  0.10537110
   0.10516712  0.43866028  0.77151449
   0.66780977  0.10485761  0.43805130
   0.00005929  0.22801872  0.10538505
   0.89497315  0.33304773  0.43838209
   0.33378314  0.89469462  0.56159434
   0.89571342  0.56088146  0.43815909
   0.10545205  0.66708709  0.77172466
   0.33466553  0.43994971  0.56214311
   0.89472607  0.56089912  0.22785473
   0.77265803  0.77289550  0.10506724
   0.66845178  0.55878607  0.43432369
   0.43752974  0.33243536  0.43886252
   0.10639351  0.66739788  0.56185541
   0.22846383  0.00059951  0.89479895
   0.66656235  0.56160540  0.22764095
   0.56197798  0.66683642  0.77058162
   0.99986273  0.22849094  0.89512466
   0.77237800  0.77259258  0.89416772
   0.66675026  0.10485516  0.22801259
   0.22808912  0.22823966  0.89507332
   0.43813999  0.33302901  0.22845710
   0.77224899  0.00026355  0.89442518
   0.56194176  0.89392590  0.56165166
   0.43862702  0.10536397  0.22847430
   0.43951305  0.10574985  0.43848014
Direct configuration=     5
   0.54697699  0.66215797  0.57307159
   0.77318251  0.78334445  0.50951025
   0.80227241  0.85945781  0.49586862
   0.81714657  0.71065007  0.50819545
   0.68073279  0.75938978  0.50370515
   0.01855438  0.33416753  0.83402236
   0.21279817  0.42589571  0.53516787
   0.54695061  0.09372315  0.20251938
   0.88036564  0.76067665  0.86704598
   0.45320435  0.54774456  0.79976789
   0.12051274  0.87947855  0.13151614
   0.09341253  0.54702131  0.79753234
   0.42951479  0.21410246  0.46629106
   0.76011112  0.88008762  0.13337069
   0.21358196  0.78717354  0.53365557
   0.90027483  0.09907234  0.12399257
   0.23933733  0.11992283  0.86790813
   0.86319329  0.43119568  0.45674263
   0.43250411  0.86459303  0.54370923
   0.98238441  0.31534989  0.16692554
   0.64853273  0.00022530  0.49965967
   0.00050208  0.64780840  0.50012369
   0.33279562  0.31450056  0.16694816
   0.98101648  0.66663088  0.16660467
   0.35161518  0.35127148  0.50099659
   0.68389298  0.01779391  0.16569344
   0.66658720  0.98202491  0.83348687
   0.00109649  0.35353320  0.49931876
   0.78752175  0.21303372  0.46552205
   0.33362337  0.01844783  0.16665244
   0.90599827  0.45286412  0.20063971
   0.31486782  0.33392869  0.83415747
   0.45365498  0.90714820  0.79862987
   0.07299185  0.66869983  0.66655122
   0.66883387  0.07253624  0.33288920
   0.99842284  0.73863862 -0.00005021
   0.59482265  0.92926814  0.66652162
   0.92731204  0.59344836  0.33296952
   0.26046154  0.26019173  0.00043755
   0.40553166  0.33210365  0.33326301
   0.79074537  0.57280487  0.46531292
   0.73963583  0.99886072 -0.00019875
   0.57544312  0.79252326  0.53053567
   0.60025830  0.66597446  0.67619252
   0.26174103  0.00091040 -0.00011533
   0.07139473  0.40448212  0.66669935
   0.40498836  0.07345117  0.33347188
   0.33314091  0.40462040  0.66730682
   0.74144098  0.74157111 -0.00001825
   0.54625054  0.45360498  0.20283321
   0.87995765  0.12056201  0.86808683
   0.33269205  0.92708887  0.66661373
   0.56458010  0.42869635  0.45595998
   0.66815812  0.59744223  0.32891237
   0.92707325  0.33385026  0.33304135
   0.35299718  0.00049035  0.50042551
   0.31507479  0.98215765  0.83301608
   0.90170287  0.80290385  0.12448560
   0.23443752  0.76606517  0.79059601
   0.11935540  0.23878186  0.13258143
   0.56908137  0.13583098  0.45494204
   0.23413704  0.46873486  0.78963951
   0.19788516  0.09838967  0.12383926
   0.00003555  0.26085187  0.00041768
   0.09925376  0.90089054  0.87719892
   0.80322922  0.90201327  0.87545221
   0.42110132  0.55766134  0.53992769
   0.53126144  0.76593992  0.78984978
   0.76526037  0.53073269  0.21097664
   0.13641930  0.56842624  0.54485448
   0.46913500  0.23464812  0.20965979
   0.62090452  0.61384066  0.50103733
   0.76591669  0.23401821  0.20915149
   0.66607760  0.68539568  0.83510482
   0.01845507  0.68500675  0.83353199
   0.09881911  0.19827659  0.87694565
   0.68559551  0.66674694  0.16581230
   0.56150278  0.89510203  0.77165845
   0.99964419  0.77180539  0.89474769
   0.89489631  0.33337402  0.22788548
   0.77141904  0.99951039  0.10500030
   0.10648223  0.43852991  0.56193388
   0.33397371  0.43903572  0.77174067
   0.00017560  0.77209949  0.10491977
   0.33377497  0.89525007  0.77181605
   0.22853500  0.99982204  0.10490871
   0.22771682  0.22761749  0.10535456
   0.10520196  0.43858547  0.77145308
   0.66768272  0.10526351  0.43806189
   0.00014964  0.22810763  0.10534191
   0.89492269  0.33315762  0.43848324
   0.33384766  0.89488604  0.56156525
   0.89494815  0.56033308  0.43825120
   0.10545563  0.66698529  0.77176595
   0.33165706  0.43629637  0.56210013
   0.89469106  0.56084137  0.22791742
   0.77260738  0.77284297  0.10497352
   0.67042634  0.54002062  0.42108227
   0.43909343  0.33373212  0.43916548
   0.10644213  0.66727924  0.56184291
   0.22856074  0.00068732  0.89480407
   0.66642944  0.56164397  0.22802042
   0.56143165  0.66648812  0.77438420
   0.99994950  0.22857791  0.89511187
   0.77224378  0.77249252  0.89426516
   0.66668725  0.10493382  0.22804102
   0.22818821  0.22837550  0.89501354
   0.43811075  0.33303160  0.22880833
   0.77222660  0.00031912  0.89441883
   0.56177525  0.89773019  0.56192099
   0.43863283  0.10545401  0.22857578
   0.43962578  0.10622537  0.43854516
Direct configuration=     6
   0.55093321  0.66382886  0.57044701
   0.77210816  0.77362265  0.50662987
   0.80066475  0.85518799  0.49947689
   0.80967807  0.71439254  0.50623289
   0.67245281  0.74555882  0.50322952
   0.01858958  0.33414403  0.83402505
   0.21321737  0.42640373  0.53519143
   0.54687960  0.09371118  0.20253877
   0.88042990  0.76064180  0.86699654
   0.45290496  0.54732212  0.79947468
   0.12051828  0.87949151  0.13145794
   0.09347321  0.54705639  0.79753555
   0.42938181  0.21450214  0.46634226
   0.76012388  0.88006254  0.13325589
   0.21359958  0.78705178  0.53370637
   0.90029345  0.09911970  0.12394710
   0.23935566  0.11994201  0.86786981
   0.86332269  0.43153656  0.45675562
   0.43233010  0.86447178  0.54369408
   0.98232625  0.31535122  0.16695744
   0.64846648  0.00012465  0.49949533
   0.00022745  0.64742420  0.49983248
   0.33296617  0.31455523  0.16705105
   0.98095468  0.66646414  0.16664942
   0.35218487  0.35129775  0.50054415
   0.68386176  0.01785232  0.16569748
   0.66671028  0.98201129  0.83355542
   0.00102676  0.35340914  0.49922953
   0.78761862  0.21307105  0.46556347
   0.33370506  0.01849088  0.16668758
   0.90601207  0.45295998  0.20060032
   0.31485898  0.33382950  0.83420955
   0.45346197  0.90708006  0.79862228
   0.07311141  0.66870588  0.66650431
   0.66881099  0.07252758  0.33288029
   0.99841453  0.73867266  0.00001382
   0.59483108  0.92912174  0.66662049
   0.92745344  0.59336214  0.33320553
   0.26045685  0.26020749  0.00048681
   0.40534573  0.33198352  0.33359731
   0.78812282  0.57314307  0.46531494
   0.73963080  0.99884645 -0.00012259
   0.57473358  0.79126499  0.53254438
   0.59781763  0.66610051  0.67313768
   0.26173984  0.00092271 -0.00007102
   0.07152515  0.40446405  0.66665014
   0.40500800  0.07345306  0.33353105
   0.33343327  0.40497498  0.66728374
   0.74137935  0.74156739  0.00007794
   0.54635309  0.45368425  0.20271765
   0.88004067  0.12063747  0.86805873
   0.33278104  0.92707962  0.66658597
   0.56720768  0.43226143  0.45605514
   0.66791467  0.59683672  0.33181071
   0.92707117  0.33377419  0.33307751
   0.35320523  0.00071310  0.50031401
   0.31506337  0.98219403  0.83304028
   0.90172656  0.80294471  0.12438631
   0.23443997  0.76603384  0.79062255
   0.11938358  0.23876841  0.13252616
   0.56894042  0.13574959  0.45498754
   0.23409963  0.46876300  0.78959193
   0.19789370  0.09841339  0.12379802
   0.00003082  0.26083233  0.00045404
   0.09928344  0.90092039  0.87716769
   0.80309167  0.90197795  0.87536995
   0.42569139  0.56095387  0.54157905
   0.53135290  0.76625458  0.78964829
   0.76510577  0.53071796  0.21080546
   0.13656764  0.56848996  0.54492542
   0.46907444  0.23472755  0.20966489
   0.63254222  0.62107553  0.49862036
   0.76596200  0.23401761  0.20914301
   0.66642391  0.68555256  0.83487442
   0.01847717  0.68501814  0.83353802
   0.09886987  0.19833878  0.87689229
   0.68540584  0.66631610  0.16587095
   0.56154556  0.89508230  0.77156663
   0.99959127  0.77179975  0.89471991
   0.89490124  0.33338979  0.22785276
   0.77142403  0.99947341  0.10503356
   0.10638573  0.43865047  0.56195430
   0.33399591  0.43915876  0.77183165
   0.00013099  0.77208310  0.10494820
   0.33375327  0.89519790  0.77182371
   0.22848722  0.99978373  0.10490822
   0.22766484  0.22756313  0.10536356
   0.10518301  0.43862616  0.77148648
   0.66775183  0.10504270  0.43805613
   0.00010049  0.22805926  0.10536538
   0.89495014  0.33309784  0.43842821
   0.33381256  0.89478191  0.56158107
   0.89536445  0.56063140  0.43820109
   0.10545369  0.66704067  0.77174349
   0.33329366  0.43828377  0.56212351
   0.89471010  0.56087279  0.22788331
   0.77263493  0.77287155  0.10502451
   0.66935219  0.55022895  0.42828555
   0.43824279  0.33302669  0.43900067
   0.10641568  0.66734378  0.56184971
   0.22850802  0.00063955  0.89480128
   0.66650174  0.56162299  0.22781399
   0.56172885  0.66667759  0.77231561
   0.99990229  0.22853060  0.89511883
   0.77231680  0.77254695  0.89421215
   0.66672153  0.10489102  0.22802555
   0.22813431  0.22830160  0.89504606
   0.43812666  0.33303019  0.22861726
   0.77223878  0.00028889  0.89442229
   0.56186583  0.89566067  0.56177447
   0.43862967  0.10540503  0.22852058
   0.43956445  0.10596669  0.43850979
Direct configuration=     7
   0.54844446  0.66181891  0.57070969
   0.76710622  0.76978841  0.51347706
   0.81162329  0.87443610  0.49053908
   0.81540801  0.71783496  0.50970682
   0.69107918  0.76374548  0.50652444
   0.01852250  0.33418158  0.83402543
   0.21134352  0.42472282  0.53510127
   0.54690313  0.09374645  0.20248789
   0.88031568  0.76070305  0.86708738
   0.45232001  0.54706126  0.80030246
   0.12054313  0.87950520  0.13155911
   0.09336287  0.54689878  0.79754142
   0.42941018  0.21418600  0.46623086
   0.76012693  0.88011897  0.13344204
   0.21355033  0.78725811  0.53364967
   0.90032846  0.09911603  0.12401998
   0.23932386  0.11998196  0.86793536
   0.86296962  0.43103029  0.45669191
   0.43189186  0.86488646  0.54374964
   0.98237863  0.31538724  0.16694258
   0.64919711  0.00157229  0.49940955
   0.00008002  0.64776605  0.50002351
   0.33290912  0.31456045  0.16696914
   0.98094211  0.66657188  0.16668803
   0.35150547  0.35000836  0.50062492
   0.68389731  0.01782489  0.16574192
   0.66659143  0.98206310  0.83348763
   0.00091778  0.35358330  0.49930924
   0.78758407  0.21319931  0.46547791
   0.33367090  0.01847135  0.16668019
   0.90597329  0.45289218  0.20069508
   0.31490799  0.33401592  0.83414516
   0.45363103  0.90719651  0.79864666
   0.07288098  0.66869007  0.66661393
   0.66887629  0.07259400  0.33294788
   0.99842362  0.73858862 -0.00005217
   0.59484874  0.92960898  0.66711273
   0.92707540  0.59349856  0.33311859
   0.26046406  0.26017763  0.00034953
   0.40567828  0.33222250  0.33353998
   0.79138332  0.57242469  0.46503377
   0.73962072  0.99886232 -0.00026390
   0.57486112  0.79223201  0.53030100
   0.60227834  0.66613561  0.67561467
   0.26174054  0.00088898 -0.00014145
   0.07125327  0.40451799  0.66672708
   0.40499611  0.07343013  0.33351408
   0.33273489  0.40404441  0.66773897
   0.74150141  0.74156886 -0.00005456
   0.54630956  0.45359342  0.20293367
   0.87998813  0.12060422  0.86811252
   0.33260612  0.92709293  0.66669243
   0.56309421  0.42289888  0.45492358
   0.66907816  0.59818336  0.32705916
   0.92705899  0.33395913  0.33312951
   0.35302502  0.00063178  0.50031643
   0.31508033  0.98215411  0.83302630
   0.90170354  0.80284327  0.12458418
   0.23447657  0.76612501  0.79057641
   0.11937211  0.23878565  0.13261420
   0.56905325  0.13596931  0.45490454
   0.23427265  0.46872117  0.78969085
   0.19787508  0.09840414  0.12386406
   0.00003576  0.26087588  0.00037252
   0.09929917  0.90093189  0.87723183
   0.80332417  0.90202934  0.87552198
   0.41992079  0.55933289  0.53902859
   0.53105216  0.76615745  0.79020852
   0.76520289  0.53063331  0.21120231
   0.13624327  0.56816269  0.54478171
   0.46923307  0.23474780  0.20963270
   0.61840482  0.60803761  0.49510358
   0.76592611  0.23409647  0.20916183
   0.66649569  0.68544570  0.83627650
   0.01843474  0.68499907  0.83352939
   0.09882543  0.19821839  0.87699394
   0.68565435  0.66679649  0.16589675
   0.56151149  0.89501994  0.77156510
   0.99962520  0.77178420  0.89471708
   0.89491288  0.33323022  0.22783574
   0.77141098  0.99948551  0.10499634
   0.10648796  0.43849492  0.56197194
   0.33409168  0.43911745  0.77169590
   0.00022438  0.77223251  0.10483321
   0.33383247  0.89525535  0.77178269
   0.22851605  0.99982708  0.10489786
   0.22764236  0.22756862  0.10534992
   0.10517288  0.43859194  0.77143193
   0.66768239  0.10523048  0.43800244
   0.00014555  0.22804976  0.10532512
   0.89507280  0.33289151  0.43851181
   0.33378674  0.89483446  0.56154665
   0.89823083  0.56023584  0.43793563
   0.10542871  0.66697110  0.77173803
   0.32839479  0.43249227  0.56253881
   0.89498532  0.56088711  0.22756328
   0.77267560  0.77302355  0.10489466
   0.66531722  0.54464573  0.42875409
   0.43697236  0.33205279  0.43922397
   0.10671018  0.66740783  0.56196643
   0.22856522  0.00065874  0.89479463
   0.66633239  0.56134786  0.22502064
   0.56084652  0.66656773  0.77723728
   0.99989531  0.22856058  0.89509270
   0.77230376  0.77250961  0.89436471
   0.66667741  0.10482384  0.22804372