 112 112   0   0
  0.2170079E+02  0.1372957E-08  0.1373220E-08  0.1489038E-08  0.5000000E-15
  1.000000000000000E-004
  CAR 
 unknown system                          
      8.30679654    -23.94806981  301     -2.39106747      1.00000000
    -23.948  0.0000E+00  0.0000E+00
    -23.841  0.0000E+00  0.0000E+00
    -23.733  0.0000E+00  0.0000E+00
    -23.626  0.0000E+00  0.0000E+00
    -23.518  0.0000E+00  0.0000E+00
    -23.410  0.0000E+00  0.0000E+00
    -23.303  0.0000E+00  0.0000E+00
    -23.195  0.0000E+00  0.0000E+00
    -23.088  0.0000E+00  0.0000E+00
    -22.980  0.0000E+00  0.0000E+00
    -22.873  0.0000E+00  0.0000E+00
    -22.765  0.0000E+00  0.0000E+00
    -22.658  0.0000E+00  0.0000E+00
    -22.550  0.0000E+00  0.0000E+00
    -22.443  0.1860E+02  0.2000E+01
    -22.335  0.0000E+00  0.2000E+01
    -22.228  0.0000E+00  0.2000E+01
    -22.120  0.0000E+00  0.2000E+01
    -22.013  0.3100E+01  0.2333E+01
    -21.905  0.1223E-11  0.4000E+01
    -21.798  0.3719E+02  0.7999E+01
    -21.690  0.3752E+02  0.1203E+02
    -21.583  0.1860E+02  0.1600E+02
    -21.475  0.3713E+02  0.1999E+02
    -21.368  0.3561E+02  0.2383E+02
    -21.260  0.6224E+02  0.3269E+02
    -21.153  0.4118E+01  0.3444E+02
    -21.045  0.1860E+02  0.3800E+02
    -20.938  0.6208E+02  0.4467E+02
    -20.830  0.2069E+02  0.5022E+02
    -20.723  0.1860E+02  0.5400E+02
    -20.615  0.1860E+02  0.5800E+02
    -20.508  0.1866E+02  0.6001E+02
    -20.400  0.3718E+02  0.6600E+02
    -20.293  0.4171E+02  0.7048E+02
    -20.185  0.1860E+02  0.7400E+02
    -20.077  0.7552E+02  0.8212E+02
    -19.970  0.2645E+03  0.1204E+03
    -19.862  0.8145E+02  0.1328E+03
    -19.755  0.1860E+02  0.1380E+03
    -19.647  0.0000E+00  0.1380E+03
    -19.540  0.0000E+00  0.1380E+03
    -19.432  0.0000E+00  0.1380E+03
    -19.325  0.1725E+00  0.1380E+03
    -19.217  0.0000E+00  0.1400E+03
    -19.110  0.0000E+00  0.1400E+03
    -19.002  0.1958E+02  0.1421E+03
    -18.895  0.0000E+00  0.1440E+03
    -18.787  0.0000E+00  0.1440E+03
    -18.680  0.0000E+00  0.1440E+03
    -18.572  0.0000E+00  0.1440E+03
    -18.465  0.0000E+00  0.1440E+03
    -18.357  0.0000E+00  0.1440E+03
    -18.250  0.0000E+00  0.1440E+03
    -18.142  0.0000E+00  0.1440E+03
    -18.035  0.0000E+00  0.1440E+03
    -17.927  0.0000E+00  0.1440E+03
    -17.820  0.0000E+00  0.1440E+03
    -17.712  0.0000E+00  0.1440E+03
    -17.605  0.0000E+00  0.1440E+03
    -17.497  0.0000E+00  0.1440E+03
    -17.390  0.0000E+00  0.1440E+03
    -17.282  0.0000E+00  0.1440E+03
    -17.175  0.0000E+00  0.1440E+03
    -17.067  0.0000E+00  0.1440E+03
    -16.960  0.0000E+00  0.1440E+03
    -16.852  0.0000E+00  0.1440E+03
    -16.744  0.0000E+00  0.1440E+03
    -16.637  0.0000E+00  0.1440E+03
    -16.529  0.0000E+00  0.1440E+03
    -16.422  0.0000E+00  0.1440E+03
    -16.314  0.0000E+00  0.1440E+03
    -16.207  0.0000E+00  0.1440E+03
    -16.099  0.0000E+00  0.1440E+03
    -15.992  0.0000E+00  0.1440E+03
    -15.884  0.0000E+00  0.1440E+03
    -15.777  0.0000E+00  0.1440E+03
    -15.669  0.0000E+00  0.1440E+03
    -15.562  0.0000E+00  0.1440E+03
    -15.454  0.0000E+00  0.1440E+03
    -15.347  0.0000E+00  0.1440E+03
    -15.239  0.0000E+00  0.1440E+03
    -15.132  0.0000E+00  0.1440E+03
    -15.024  0.0000E+00  0.1440E+03
    -14.917  0.0000E+00  0.1440E+03
    -14.809  0.0000E+00  0.1440E+03
    -14.702  0.0000E+00  0.1440E+03
    -14.594  0.0000E+00  0.1440E+03
    -14.487  0.0000E+00  0.1440E+03
    -14.379  0.0000E+00  0.1440E+03
    -14.272  0.0000E+00  0.1440E+03
    -14.164  0.0000E+00  0.1440E+03
    -14.057  0.0000E+00  0.1440E+03
    -13.949  0.0000E+00  0.1440E+03
    -13.842  0.0000E+00  0.1440E+03
    -13.734  0.0000E+00  0.1440E+03
    -13.627  0.0000E+00  0.1440E+03
    -13.519  0.0000E+00  0.1440E+03
    -13.411  0.3410E-05  0.1440E+03
    -13.304  0.1860E+02  0.1460E+03
    -13.196  0.0000E+00  0.1460E+03
    -13.089  0.0000E+00  0.1460E+03
    -12.981  0.0000E+00  0.1460E+03
    -12.874  0.0000E+00  0.1460E+03
    -12.766  0.0000E+00  0.1460E+03
    -12.659  0.0000E+00  0.1460E+03
    -12.551  0.0000E+00  0.1460E+03
    -12.444  0.0000E+00  0.1460E+03
    -12.336  0.0000E+00  0.1460E+03
    -12.229  0.2346E+01  0.1463E+03
    -12.121  0.0000E+00  0.1480E+03
    -12.014  0.0000E+00  0.1480E+03
    -11.906  0.0000E+00  0.1480E+03
    -11.799  0.0000E+00  0.1480E+03
    -11.691  0.9317E+01  0.1490E+03
    -11.584  0.1860E+02  0.1520E+03
    -11.476  0.2655E-02  0.1520E+03
    -11.369  0.1860E+02  0.1560E+03
    -11.261  0.1860E+02  0.1580E+03
    -11.154  0.1860E+02  0.1600E+03
    -11.046  0.2063E-01  0.1600E+03
    -10.939  0.4400E+00  0.1620E+03
    -10.831  0.0000E+00  0.1640E+03
    -10.724  0.2086E-02  0.1640E+03
    -10.616  0.3101E+02  0.1693E+03
    -10.509  0.2120E+02  0.1743E+03
    -10.401  0.1860E+02  0.1780E+03
    -10.294  0.1860E+02  0.1800E+03
    -10.186  0.1860E+02  0.1820E+03
    -10.078  0.0000E+00  0.1820E+03
     -9.971  0.1747E+02  0.1839E+03
     -9.863  0.4647E-13  0.1840E+03
     -9.756  0.5530E+02  0.1899E+03
     -9.648  0.1736E+02  0.1939E+03
     -9.541  0.1860E+02  0.1960E+03
     -9.433  0.1656E+02  0.1978E+03
     -9.326  0.0000E+00  0.1980E+03
     -9.218  0.1853E+02  0.2000E+03
     -9.111  0.1860E+02  0.2020E+03
     -9.003  0.1860E+02  0.2040E+03
     -8.896  0.0000E+00  0.2040E+03
     -8.788  0.0000E+00  0.2040E+03
     -8.681  0.1868E+02  0.2060E+03
     -8.573  0.1861E+02  0.2100E+03
     -8.466  0.3720E+02  0.2160E+03
     -8.358  0.3328E+02  0.2196E+03
     -8.251  0.3774E+02  0.2261E+03
     -8.143  0.6702E+02  0.2352E+03
     -8.036  0.5275E+02  0.2437E+03
     -7.928  0.5581E+02  0.2500E+03
     -7.821  0.8835E+02  0.2615E+03
     -7.713  0.4203E+02  0.2685E+03
     -7.606  0.3664E+02  0.2739E+03
     -7.498  0.2799E+02  0.2770E+03
     -7.391  0.2585E+02  0.2808E+03
     -7.283  0.2068E+02  0.2842E+03
     -7.176  0.1860E+02  0.2880E+03
     -7.068  0.1860E+02  0.2900E+03
     -6.961  0.0000E+00  0.2900E+03
     -6.853  0.0000E+00  0.2900E+03
     -6.745  0.0000E+00  0.2900E+03
     -6.638  0.6915E+00  0.2901E+03
     -6.530  0.0000E+00  0.2920E+03
     -6.423  0.4659E-01  0.2920E+03
     -6.315  0.6113E-07  0.2940E+03
     -6.208  0.4757E+02  0.2991E+03
     -6.100  0.2439E+01  0.3003E+03
     -5.993  0.3502E+02  0.3058E+03
     -5.885  0.8265E+02  0.3169E+03
     -5.778  0.6158E+02  0.3266E+03
     -5.670  0.4020E+02  0.3323E+03
     -5.563  0.5804E+02  0.3402E+03
     -5.455  0.1857E+02  0.3440E+03
     -5.348  0.2337E-02  0.3440E+03
     -5.240  0.1860E+02  0.3480E+03
     -5.133  0.5484E+02  0.3539E+03
     -5.025  0.7419E+02  0.3620E+03
     -4.918  0.9536E+02  0.3723E+03
     -4.810  0.3721E+02  0.3780E+03
     -4.703  0.1759E+02  0.3819E+03
     -4.595  0.7408E+02  0.3920E+03
     -4.488  0.1206E+03  0.4070E+03
     -4.380  0.1553E+03  0.4267E+03
     -4.273  0.7844E+02  0.4424E+03
     -4.165  0.1280E+03  0.4598E+03
     -4.058  0.9646E+02  0.4704E+03
     -3.950  0.1177E+03  0.4847E+03
     -3.843  0.8786E+02  0.4974E+03
     -3.735  0.9102E+02  0.5098E+03
     -3.628  0.7442E+02  0.5200E+03
     -3.520  0.2592E+02  0.5248E+03
     -3.412  0.8711E-01  0.5260E+03
     -3.305  0.1665E+02  0.5298E+03
     -3.197  0.5740E+02  0.5362E+03
     -3.090  0.6778E+02  0.5453E+03
     -2.982  0.7441E+02  0.5540E+03
     -2.875  0.5725E+02  0.5622E+03
     -2.767  0.6325E+02  0.5728E+03
     -2.660  0.3683E+02  0.5800E+03
     -2.552  0.0000E+00  0.5800E+03
     -2.445  0.7582E+01  0.5808E+03
     -2.337  0.0000E+00  0.5820E+03
     -2.230  0.0000E+00  0.5820E+03
     -2.122  0.0000E+00  0.5820E+03
     -2.015  0.0000E+00  0.5820E+03
     -1.907  0.0000E+00  0.5820E+03
     -1.800  0.0000E+00  0.5820E+03
     -1.692  0.0000E+00  0.5820E+03
     -1.585  0.0000E+00  0.5820E+03
     -1.477  0.0000E+00  0.5820E+03
     -1.370  0.0000E+00  0.5820E+03
     -1.262  0.0000E+00  0.5820E+03
     -1.155  0.0000E+00  0.5820E+03
     -1.047  0.0000E+00  0.5820E+03
     -0.940  0.0000E+00  0.5820E+03
     -0.832  0.0000E+00  0.5820E+03
     -0.725  0.0000E+00  0.5820E+03
     -0.617  0.0000E+00  0.5820E+03
     -0.510  0.0000E+00  0.5820E+03
     -0.402  0.0000E+00  0.5820E+03
     -0.295  0.0000E+00  0.5820E+03
     -0.187  0.0000E+00  0.5820E+03
     -0.079  0.0000E+00  0.5820E+03
      0.028  0.0000E+00  0.5820E+03
      0.136  0.0000E+00  0.5820E+03
      0.243  0.0000E+00  0.5820E+03
      0.351  0.0000E+00  0.5820E+03
      0.458  0.0000E+00  0.5820E+03
      0.566  0.0000E+00  0.5820E+03
      0.673  0.0000E+00  0.5820E+03
      0.781  0.0000E+00  0.5820E+03
      0.888  0.0000E+00  0.5820E+03
      0.996  0.0000E+00  0.5820E+03
      1.103  0.0000E+00  0.5820E+03
      1.211  0.0000E+00  0.5820E+03
      1.318  0.0000E+00  0.5820E+03
      1.426  0.0000E+00  0.5820E+03
      1.533  0.0000E+00  0.5820E+03
      1.641  0.0000E+00  0.5820E+03
      1.748  0.0000E+00  0.5820E+03
      1.856  0.0000E+00  0.5820E+03
      1.963  0.0000E+00  0.5820E+03
      2.071  0.0000E+00  0.5820E+03
      2.178  0.0000E+00  0.5820E+03
      2.286  0.0000E+00  0.5820E+03
      2.393  0.0000E+00  0.5820E+03
      2.501  0.0000E+00  0.5820E+03
      2.608  0.0000E+00  0.5820E+03
      2.716  0.0000E+00  0.5820E+03
      2.823  0.0000E+00  0.5820E+03
      2.931  0.1815E+02  0.5840E+03
      3.039  0.0000E+00  0.5840E+03
      3.146  0.0000E+00  0.5840E+03
      3.254  0.0000E+00  0.5840E+03
      3.361  0.0000E+00  0.5840E+03
      3.469  0.0000E+00  0.5840E+03
      3.576  0.0000E+00  0.5840E+03
      3.684  0.1825E+02  0.5860E+03
      3.791  0.1502E+01  0.5862E+03
      3.899  0.0000E+00  0.5880E+03
      4.006  0.4893E-06  0.5880E+03
      4.114  0.1860E+02  0.5900E+03
      4.221  0.1391E+01  0.5901E+03
      4.329  0.3720E+02  0.5960E+03
      4.436  0.4089E-12  0.5960E+03
      4.544  0.1860E+02  0.5980E+03
      4.651  0.3692E+00  0.5980E+03
      4.759  0.1860E+02  0.6020E+03
      4.866  0.0000E+00  0.6020E+03
      4.974  0.1743E+02  0.6039E+03
      5.081  0.1828E+02  0.6080E+03
      5.189  0.6563E+02  0.6171E+03
      5.296  0.2604E+02  0.6228E+03
      5.404  0.0000E+00  0.6240E+03
      5.511  0.1853E+02  0.6260E+03
      5.619  0.2582E-13  0.6260E+03
      5.726  0.1860E+02  0.6280E+03
      5.834  0.2021E+02  0.6322E+03
      5.941  0.1769E-02  0.6340E+03
      6.049  0.2948E+02  0.6392E+03
      6.156  0.2263E+02  0.6424E+03
      6.264  0.6245E+02  0.6507E+03
      6.372  0.6244E+02  0.6607E+03
      6.479  0.5559E+02  0.6680E+03
      6.587  0.7409E+02  0.6800E+03
      6.694  0.6357E+02  0.6888E+03
      6.802  0.7071E+02  0.7016E+03
      6.909  0.1860E+02  0.7040E+03
      7.017  0.0000E+00  0.7040E+03
      7.124  0.0000E+00  0.7040E+03
      7.232  0.0000E+00  0.7040E+03
      7.339  0.0000E+00  0.7040E+03
      7.447  0.0000E+00  0.7040E+03
      7.554  0.0000E+00  0.7040E+03
      7.662  0.0000E+00  0.7040E+03
      7.769  0.0000E+00  0.7040E+03
      7.877  0.0000E+00  0.7040E+03
      7.984  0.0000E+00  0.7040E+03
      8.092  0.0000E+00  0.7040E+03
      8.199  0.0000E+00  0.7040E+03
      8.307  0.0000E+00  0.7040E+03
