       N       E                     dE             d eps       ncg     rms          rms(c)
DAV:   1     0.442620054283E+04    0.44262E+04   -0.24492E+05   760   0.116E+03
DAV:   2    -0.415692951126E+03   -0.48419E+04   -0.47428E+04   864   0.325E+02
DAV:   3    -0.976223846618E+03   -0.56053E+03   -0.55840E+03   816   0.119E+02
DAV:   4    -0.989430837551E+03   -0.13207E+02   -0.13165E+02   832   0.197E+01
DAV:   5    -0.989847201289E+03   -0.41636E+00   -0.41593E+00   840   0.315E+00    0.857E+01
DAV:   6    -0.873737576715E+03    0.11611E+03   -0.50757E+02   800   0.353E+01    0.397E+01
DAV:   7    -0.873229160920E+03    0.50842E+00   -0.16393E+01   920   0.600E+00    0.151E+01
DAV:   8    -0.872747912500E+03    0.48125E+00   -0.11586E+00   832   0.230E+00    0.602E+00
DAV:   9    -0.872610238885E+03    0.13767E+00   -0.44474E-01   832   0.142E+00    0.102E+00
DAV:  10    -0.872612823961E+03   -0.25851E-02   -0.87143E-02   808   0.616E-01    0.681E-01
DAV:  11    -0.872614691790E+03   -0.18678E-02   -0.22587E-02   784   0.310E-01    0.293E-01
DAV:  12    -0.872621314225E+03   -0.66224E-02   -0.74686E-03   784   0.205E-01    0.150E-01
DAV:  13    -0.872631770471E+03   -0.10456E-01   -0.40664E-03   808   0.162E-01    0.169E-01
DAV:  14    -0.872640921951E+03   -0.91515E-02   -0.21577E-03   800   0.104E-01    0.541E-02
DAV:  15    -0.872642560171E+03   -0.16382E-02   -0.39352E-04   816   0.438E-02    0.527E-02
DAV:  16    -0.872642972076E+03   -0.41190E-03   -0.88822E-05   816   0.213E-02    0.365E-02
DAV:  17    -0.872643343774E+03   -0.37170E-03   -0.92069E-05   800   0.174E-02    0.161E-02
DAV:  18    -0.872643691580E+03   -0.34781E-03   -0.31982E-05   784   0.101E-02    0.121E-02
DAV:  19    -0.872643708604E+03   -0.17025E-04   -0.84010E-06   744   0.648E-03    0.841E-03
DAV:  20    -0.872643716173E+03   -0.75681E-05   -0.24690E-06   568   0.350E-03    0.443E-03
DAV:  21    -0.872643732504E+03   -0.16332E-04   -0.23017E-06   584   0.287E-03    0.146E-03
DAV:  22    -0.872643736670E+03   -0.41662E-05   -0.84567E-07   512   0.185E-03    0.151E-03
DAV:  23    -0.872643737068E+03   -0.39753E-06   -0.19594E-07   528   0.955E-04
   1 F= -.88271735E+03 E0= -.88271735E+03  d E =-.912831E-14
