 vasp.5.4.1 05Feb16 (build Feb 08 2018 09:21:51) complex                        
  
 executed on             LinuxIFC date 2019.11.13  15:47:47
 running on   48 total cores
 distrk:  each k-point on   48 cores,    1 groups
 distr:  one band on NCORES_PER_BAND=   6 cores,    8 groups


--------------------------------------------------------------------------------------------------------


 INCAR:
 POTCAR:    PAW_PBE Al 04Jan2001                  
 POTCAR:    PAW_PBE C 08Apr2002                   
 POTCAR:    PAW_PBE H 15Jun2001                   
 POTCAR:    PAW_PBE O 08Apr2002                   
 POTCAR:    PAW_PBE Si 05Jan2001                  
 POTCAR:    PAW_PBE Al 04Jan2001                  
   VRHFIN =Al: s2p1                                                             
   LEXCH  = PE                                                                  
   EATOM  =    53.5387 eV,    3.9350 Ry                                         
                                                                                
   TITEL  = PAW_PBE Al 04Jan2001                                                
   LULTRA =        F    use ultrasoft PP ?                                      
   IUNSCR =        1    unscreen: 0-lin 1-nonlin 2-no                           
   RPACOR =    1.500    partial core radius                                     
   POMASS =   26.981; ZVAL   =    3.000    mass and valenz                      
   RCORE  =    1.900    outmost cutoff radius                                   
   RWIGS  =    2.650; RWIGS  =    1.402    wigner-seitz radius (au A)           
   ENMAX  =  240.300; ENMIN  =  180.225 eV                                      
   ICORE  =        2    local potential                                         
   LCOR   =        T    correct aug charges                                     
   LPAW   =        T    paw PP                                                  
   EAUG   =  291.052                                                            
   DEXC   =    0.000                                                            
   RMAX   =    1.939    core radius for proj-oper                               
   RAUG   =    1.300    factor for augmentation sphere                          
   RDEP   =    1.966    radius for radial grids                                 
   RDEPT  =    1.856    core radius for aug-charge                              
                                                                                
   Atomic configuration                                                         
    6 entries                                                                   
     n  l   j            E        occ.                                          
     1  0  0.50     -1511.1048   2.0000                                         
     2  0  0.50      -108.1629   2.0000                                         
     2  1  1.50       -69.6402   6.0000                                         
     3  0  0.50        -7.7528   2.0000                                         
     3  1  1.50        -2.7121   1.0000                                         
     3  2  2.50        -2.7212   0.0000                                         
   Description                                                                  
     l       E           TYP  RCUT    TYP  RCUT                                 
     0     -7.7528455     23  1.900                                             
     0     -3.3096929     23  1.900                                             
     1     -2.7120682     23  1.900                                             
     1     13.6058260     23  1.900                                             
     2     -2.7211652      7  1.900                                             
  local pseudopotential read in
  partial core-charges read in
  partial kinetic energy density read in
  atomic valenz-charges read in
  non local Contribution for L=           0  read in
    real space projection operators read in
  non local Contribution for L=           0  read in
    real space projection operators read in
  non local Contribution for L=           1  read in
    real space projection operators read in
  non local Contribution for L=           1  read in
    real space projection operators read in
    PAW grid and wavefunctions read in
 
   number of l-projection  operators is LMAX  =           4
   number of lm-projection operators is LMMAX =           8
 
 POTCAR:    PAW_PBE C 08Apr2002                   
   VRHFIN =C: s2p2                                                              
   LEXCH  = PE                                                                  
   EATOM  =   147.1560 eV,   10.8157 Ry                                         
                                                                                
   TITEL  = PAW_PBE C 08Apr2002                                                 
   LULTRA =        F    use ultrasoft PP ?                                      
   IUNSCR =        1    unscreen: 0-lin 1-nonlin 2-no                           
   RPACOR =    1.200    partial core radius                                     
   POMASS =   12.011; ZVAL   =    4.000    mass and valenz                      
   RCORE  =    1.500    outmost cutoff radius                                   
   RWIGS  =    1.630; RWIGS  =    0.863    wigner-seitz radius (au A)           
   ENMAX  =  400.000; ENMIN  =  300.000 eV                                      
   ICORE  =        2    local potential                                         
   LCOR   =        T    correct aug charges                                     
   LPAW   =        T    paw PP                                                  
   EAUG   =  644.873                                                            
   DEXC   =    0.000                                                            
   RMAX   =    1.529    core radius for proj-oper                               
   RAUG   =    1.300    factor for augmentation sphere                          
   RDEP   =    1.501    radius for radial grids                                 
   RDEPT  =    1.300    core radius for aug-charge                              
                                                                                
   Atomic configuration                                                         
    4 entries                                                                   
     n  l   j            E        occ.                                          
     1  0  0.50      -273.3789   2.0000                                         
     2  0  0.50       -13.7508   2.0000                                         
     2  1  0.50        -5.2854   2.0000                                         
     3  2  1.50        -5.4423   0.0000                                         
   Description                                                                  
     l       E           TYP  RCUT    TYP  RCUT                                 
     0    -13.7508458     23  1.200                                             
     0     -8.2022199     23  1.200                                             
     1     -5.2854383     23  1.500                                             
     1     34.0145650     23  1.500                                             
     2     -5.4423304      7  1.500                                             
  local pseudopotential read in
  partial core-charges read in
  partial kinetic energy density read in
  atomic valenz-charges read in
  non local Contribution for L=           0  read in
    real space projection operators read in
  non local Contribution for L=           0  read in
    real space projection operators read in
  non local Contribution for L=           1  read in
    real space projection operators read in
  non local Contribution for L=           1  read in
    real space projection operators read in
    PAW grid and wavefunctions read in
 
   number of l-projection  operators is LMAX  =           4
   number of lm-projection operators is LMMAX =           8
 
 POTCAR:    PAW_PBE H 15Jun2001                   
   VRHFIN =H: ultrasoft test                                                    
   LEXCH  = PE                                                                  
   EATOM  =    12.4884 eV,    0.9179 Ry                                         
                                                                                
   TITEL  = PAW_PBE H 15Jun2001                                                 
   LULTRA =        F    use ultrasoft PP ?                                      
   IUNSCR =        0    unscreen: 0-lin 1-nonlin 2-no                           
   RPACOR =    0.000    partial core radius                                     
   POMASS =    1.000; ZVAL   =    1.000    mass and valenz                      
   RCORE  =    1.100    outmost cutoff radius                                   
   RWIGS  =    0.700; RWIGS  =    0.370    wigner-seitz radius (au A)           
   ENMAX  =  250.000; ENMIN  =  200.000 eV                                      
   RCLOC  =    0.701    cutoff for local pot                                    
   LCOR   =        T    correct aug charges                                     
   LPAW   =        T    paw PP                                                  
   EAUG   =  400.000                                                            
   RMAX   =    1.123    core radius for proj-oper                               
   RAUG   =    1.200    factor for augmentation sphere                          
   RDEP   =    1.112    radius for radial grids                                 
   RDEPT  =    0.926    core radius for aug-charge                              
                                                                                
   Atomic configuration                                                         
    2 entries                                                                   
     n  l   j            E        occ.                                          
     1  0  0.50        -6.4927   1.0000                                         
     2  1  0.50        -3.4015   0.0000                                         
   Description                                                                  
     l       E           TYP  RCUT    TYP  RCUT                                 
     0     -6.4927494     23  1.100                                             
     0      6.8029130     23  1.100                                             
     1     -4.0817478     23  1.100                                             
  local pseudopotential read in
  atomic valenz-charges read in
  non local Contribution for L=           0  read in
    real space projection operators read in
  non local Contribution for L=           0  read in
    real space projection operators read in
  non local Contribution for L=           1  read in
    real space projection operators read in
    PAW grid and wavefunctions read in
 
   number of l-projection  operators is LMAX  =           3
   number of lm-projection operators is LMMAX =           5
 
 POTCAR:    PAW_PBE O 08Apr2002                   
   VRHFIN =O: s2p4                                                              
   LEXCH  = PE                                                                  
   EATOM  =   432.3788 eV,   31.7789 Ry                                         
                                                                                
   TITEL  = PAW_PBE O 08Apr2002                                                 
   LULTRA =        F    use ultrasoft PP ?                                      
   IUNSCR =        1    unscreen: 0-lin 1-nonlin 2-no                           
   RPACOR =    1.200    partial core radius                                     
   POMASS =   16.000; ZVAL   =    6.000    mass and valenz                      
   RCORE  =    1.520    outmost cutoff radius                                   
   RWIGS  =    1.550; RWIGS  =    0.820    wigner-seitz radius (au A)           
   ENMAX  =  400.000; ENMIN  =  300.000 eV                                      
   ICORE  =        2    local potential                                         
   LCOR   =        T    correct aug charges                                     
   LPAW   =        T    paw PP                                                  
   EAUG   =  605.392                                                            
   DEXC   =    0.000                                                            
   RMAX   =    1.553    core radius for proj-oper                               
   RAUG   =    1.300    factor for augmentation sphere                          
   RDEP   =    1.550    radius for radial grids                                 
   RDEPT  =    1.329    core radius for aug-charge                              
                                                                                
   Atomic configuration                                                         
    4 entries                                                                   
     n  l   j            E        occ.                                          
     1  0  0.50      -514.6923   2.0000                                         
     2  0  0.50       -23.9615   2.0000                                         
     2  1  0.50        -9.0305   4.0000                                         
     3  2  1.50        -9.5241   0.0000                                         
   Description                                                                  
     l       E           TYP  RCUT    TYP  RCUT                                 
     0    -23.9615318     23  1.200                                             
     0     -9.5240782     23  1.200                                             
     1     -9.0304911     23  1.520                                             
     1      8.1634956     23  1.520                                             
     2     -9.5240782      7  1.500                                             
  local pseudopotential read in
  partial core-charges read in
  partial kinetic energy density read in
  kinetic energy density of atom read in
  atomic valenz-charges read in
  non local Contribution for L=           0  read in
    real space projection operators read in
  non local Contribution for L=           0  read in
    real space projection operators read in
  non local Contribution for L=           1  read in
    real space projection operators read in
  non local Contribution for L=           1  read in
    real space projection operators read in
    PAW grid and wavefunctions read in
 
   number of l-projection  operators is LMAX  =           4
   number of lm-projection operators is LMMAX =           8
 
 POTCAR:    PAW_PBE Si 05Jan2001                  
   VRHFIN =Si: s2p2                                                             
   LEXCH  = PE                                                                  
   EATOM  =   103.0669 eV,    7.5752 Ry                                         
                                                                                
   TITEL  = PAW_PBE Si 05Jan2001                                                
   LULTRA =        F    use ultrasoft PP ?                                      
   IUNSCR =        1    unscreen: 0-lin 1-nonlin 2-no                           
   RPACOR =    1.500    partial core radius                                     
   POMASS =   28.085; ZVAL   =    4.000    mass and valenz                      
   RCORE  =    1.900    outmost cutoff radius                                   
   RWIGS  =    2.480; RWIGS  =    1.312    wigner-seitz radius (au A)           
   ENMAX  =  245.345; ENMIN  =  184.009 eV                                      
   ICORE  =        2    local potential                                         
   LCOR   =        T    correct aug charges                                     
   LPAW   =        T    paw PP                                                  
   EAUG   =  322.069                                                            
   DEXC   =    0.000                                                            
   RMAX   =    1.950    core radius for proj-oper                               
   RAUG   =    1.300    factor for augmentation sphere                          
   RDEP   =    1.993    radius for radial grids                                 
   RDEPT  =    1.837    core radius for aug-charge                              
                                                                                
   Atomic configuration                                                         
    6 entries                                                                   
     n  l   j            E        occ.                                          
     1  0  0.50     -1785.8828   2.0000                                         
     2  0  0.50      -139.4969   2.0000                                         
     2  1  1.50       -95.5546   6.0000                                         
     3  0  0.50       -10.8127   2.0000                                         
     3  1  0.50        -4.0811   2.0000                                         
     3  2  1.50        -4.0817   0.0000                                         
   Description                                                                  
     l       E           TYP  RCUT    TYP  RCUT                                 
     0    -10.8127223     23  1.900                                             
     0     -7.6451159     23  1.900                                             
     1     -4.0811372     23  1.900                                             
     1      2.4879257     23  1.900                                             
     2     -4.0817478      7  1.900                                             
  local pseudopotential read in
  partial core-charges read in
  partial kinetic energy density read in
  atomic valenz-charges read in
  non local Contribution for L=           0  read in
    real space projection operators read in
  non local Contribution for L=           0  read in
    real space projection operators read in
  non local Contribution for L=           1  read in
    real space projection operators read in
  non local Contribution for L=           1  read in
    real space projection operators read in
    PAW grid and wavefunctions read in
 
   number of l-projection  operators is LMAX  =           4
   number of lm-projection operators is LMMAX =           8
 
 Optimization of the real space projectors (new method)

 maximal supplied QI-value         = 19.84
 optimisation between [QCUT,QGAM] = [ 10.12, 20.44] = [ 28.68,116.96] Ry 
 Optimized for a Real-space Cutoff    1.23 Angstroem

   l    n(q)    QCUT    max X(q) W(low)/X(q) W(high)/X(q)  e(spline) 
   0      7    10.119   176.870    0.49E-04    0.18E-03    0.39E-07
   0      7    10.119   105.762    0.46E-04    0.18E-03    0.38E-07
   1      7    10.119    55.370    0.30E-03    0.37E-03    0.12E-06
   1      7    10.119    20.208    0.27E-03    0.35E-03    0.11E-06
 Optimization of the real space projectors (new method)

 maximal supplied QI-value         = 25.13
 optimisation between [QCUT,QGAM] = [ 10.05, 20.36] = [ 28.30,116.06] Ry 
 Optimized for a Real-space Cutoff    1.30 Angstroem

   l    n(q)    QCUT    max X(q) W(low)/X(q) W(high)/X(q)  e(spline) 
   0      8    10.053   115.676    0.49E-03    0.72E-03    0.18E-06
   0      8    10.053    87.132    0.49E-03    0.71E-03    0.18E-06
   1      7    10.053     4.429    0.32E-03    0.31E-03    0.18E-06
   1      7    10.053     2.733    0.23E-03    0.19E-03    0.20E-06
 Optimization of the real space projectors (new method)

 maximal supplied QI-value         = 34.20
 optimisation between [QCUT,QGAM] = [  9.92, 20.18] = [ 27.55,114.04] Ry 
 Optimized for a Real-space Cutoff    1.26 Angstroem

   l    n(q)    QCUT    max X(q) W(low)/X(q) W(high)/X(q)  e(spline) 
   0      8     9.919    19.460    0.50E-03    0.23E-03    0.29E-06
   0      8     9.919    12.209    0.48E-03    0.23E-03    0.28E-06
   1      7     9.919     4.655    0.17E-03    0.75E-03    0.30E-06
 Optimization of the real space projectors (new method)

 maximal supplied QI-value         = 24.76
 optimisation between [QCUT,QGAM] = [ 10.15, 20.30] = [ 28.85,115.39] Ry 
 Optimized for a Real-space Cutoff    1.38 Angstroem

   l    n(q)    QCUT    max X(q) W(low)/X(q) W(high)/X(q)  e(spline) 
   0      8    10.150    20.381    0.22E-03    0.32E-03    0.29E-06
   0      8    10.150    15.268    0.23E-03    0.35E-03    0.30E-06
   1      8    10.150     5.964    0.46E-03    0.53E-03    0.21E-06
   1      8    10.150     5.382    0.38E-03    0.45E-03    0.19E-06
 Optimization of the real space projectors (new method)

 maximal supplied QI-value         = 19.84
 optimisation between [QCUT,QGAM] = [ 10.12, 20.44] = [ 28.68,116.96] Ry 
 Optimized for a Real-space Cutoff    1.23 Angstroem

   l    n(q)    QCUT    max X(q) W(low)/X(q) W(high)/X(q)  e(spline) 
   0      7    10.119   159.560    0.56E-04    0.22E-03    0.45E-07
   0      7    10.119   115.863    0.56E-04    0.21E-03    0.45E-07
   1      7    10.119    88.339    0.34E-03    0.49E-03    0.11E-06
   1      7    10.119    48.592    0.33E-03    0.48E-03    0.11E-06
  PAW_PBE Al 04Jan2001                  :
 energy of atom  1       EATOM=  -53.5387
 kinetic energy error for atom=    0.0005 (will be added to EATOM!!)
  PAW_PBE C 08Apr2002                   :
 energy of atom  2       EATOM= -147.1560
 kinetic energy error for atom=    0.0288 (will be added to EATOM!!)
  PAW_PBE H 15Jun2001                   :
 energy of atom  3       EATOM=  -12.4884
 kinetic energy error for atom=    0.0098 (will be added to EATOM!!)
  PAW_PBE O 08Apr2002                   :
 energy of atom  4       EATOM= -432.3788
 kinetic energy error for atom=    0.1156 (will be added to EATOM!!)
  PAW_PBE Si 05Jan2001                  :
 energy of atom  5       EATOM= -103.0669
 kinetic energy error for atom=    0.0012 (will be added to EATOM!!)
 
 
 POSCAR: Al  C  H  O Si                          
  positions in cartesian coordinates
  No initial velocities read in
 exchange correlation table for  LEXCH =        8
   RHO(1)=    0.500       N(1)  =     2000
   RHO(2)=  100.500       N(2)  =     4000
 


--------------------------------------------------------------------------------------------------------


 ion  position               nearest neighbor table
   1  0.572  0.676  0.567-  72 1.70  44 1.71  43 1.71  67 1.94 110 3.18 103 3.19  98 3.22
   2  0.393  0.605  0.443-   3 1.09   5 1.09   4 1.10  67 1.48
   3  0.435  0.697  0.441-   2 1.09
   4  0.426  0.574  0.390-   2 1.10
   5  0.302  0.569  0.436-   2 1.09
   6  0.015  0.335  0.839-  88 1.62 104 1.62
   7  0.205  0.414  0.546-  95 1.61  82 1.63
   8  0.549  0.096  0.203- 111 1.62 106 1.62
   9  0.877  0.762  0.868-  79 1.62 105 1.62
  10  0.445  0.551  0.817-  83 1.61 103 1.64
  11  0.123  0.880  0.131-  86 1.62  84 1.62
  12  0.091  0.547  0.802-  88 1.62  94 1.62
  13  0.413  0.207  0.460-  99 1.62 112 1.63
  14  0.764  0.881  0.141-  81 1.62  97 1.62
  15  0.220  0.782  0.537- 100 1.62  92 1.62
  16  0.904  0.099  0.130-  90 1.63  81 1.63
  17  0.237  0.120  0.867- 107 1.62 101 1.62
  18  0.878  0.440  0.455-  91 1.62  93 1.62
  19  0.439  0.871  0.546-  92 1.62 110 1.64
  20  0.985  0.316  0.168-  80 1.62  90 1.62
  21  0.653  0.016  0.510-  89 1.61 110 1.62
  22  0.008  0.654  0.497- 100 1.62  93 1.62
  23  0.337  0.315  0.165- 108 1.62  87 1.62
  24  0.987  0.666  0.164-  96 1.62  84 1.62
  25  0.360  0.361  0.502-  95 1.61  99 1.64
  26  0.687  0.018  0.173- 106 1.62  81 1.62
  27  0.661  0.983  0.844- 109 1.62  78 1.62
  28  0.998  0.344  0.503-  82 1.61  91 1.62
  29  0.783  0.222  0.464-  91 1.61  89 1.61
  30  0.337  0.020  0.164- 111 1.62  86 1.62
  31  0.910  0.453  0.204-  80 1.62  96 1.62
  32  0.309  0.332  0.829-  83 1.62 107 1.62
  33  0.449  0.905  0.805-  85 1.62  78 1.62
  34  0.071  0.663  0.666- 100 1.63  94 1.63
  35  0.663  0.072  0.338- 106 1.63  89 1.63
  36  0.998  0.740  0.999-  84 1.63  79 1.63
  37  0.595  0.939  0.675-  78 1.63 110 1.63
  38  0.931  0.599  0.331-  93 1.63  96 1.63
  39  0.260  0.262  0.999-  87 1.63 107 1.63
  40  0.407  0.342  0.333-  99 1.64 108 1.64
  41  0.791  0.571  0.466-  93 1.61  98 1.63
  42  0.742  0.999  0.007-  81 1.63 109 1.63
  43  0.588  0.804  0.542- 110 1.59   1 1.71
  44  0.579  0.649  0.678- 103 1.60   1 1.71
  45  0.261  0.001  0.998-  86 1.63 101 1.63
  46  0.059  0.402  0.671-  82 1.62  88 1.63
  47  0.401  0.064  0.333- 111 1.63 112 1.63
  48  0.354  0.428  0.669-  95 1.61  83 1.65
  49  0.745  0.745  0.005-  97 1.62 105 1.62
  50  0.550  0.451  0.199- 108 1.62 102 1.62
  51  0.876  0.120  0.872- 104 1.62 109 1.62
  52  0.334  0.928  0.668-  92 1.62  85 1.63
  53  0.573  0.422  0.454-  99 1.62  98 1.65
  54  0.670  0.586  0.333- 102 1.62  98 1.63
  55  0.935  0.333  0.335-  91 1.62  80 1.63
  56  0.349  0.998  0.501- 112 1.62  92 1.62
  57  0.312  0.983  0.832- 101 1.62  85 1.62
  58  0.905  0.801  0.129-  84 1.63  97 1.63
  59  0.231  0.766  0.791-  94 1.63  85 1.63
  60  0.123  0.240  0.134-  90 1.62  87 1.62
  61  0.564  0.140  0.457- 112 1.63  89 1.63
  62  0.228  0.466  0.786-  83 1.63  88 1.63
  63  0.200  0.100  0.122-  87 1.63  86 1.63
  64  0.999  0.258  0.004- 104 1.62  90 1.62
  65  0.096  0.902  0.877- 101 1.63  79 1.63
  66  0.799  0.902  0.879- 109 1.63 105 1.63
  67  0.418  0.575  0.532-   2 1.48  95 1.71   1 1.94
  68  0.532  0.769  0.794-  78 1.62 103 1.64
  69  0.770  0.531  0.205-  96 1.63 102 1.63
  70  0.134  0.562  0.544-  82 1.63 100 1.64
  71  0.468  0.233  0.217- 108 1.63 111 1.63
  72  0.645  0.637  0.497-  98 1.58   1 1.70
  73  0.769  0.234  0.215-  80 1.63 106 1.63
  74  0.661  0.684  0.844- 105 1.61 103 1.63
  75  0.014  0.686  0.831-  94 1.62  79 1.62
  76  0.095  0.197  0.877- 107 1.63 104 1.63
  77  0.687  0.666  0.169-  97 1.62 102 1.62
  78  0.560  0.898  0.778-  27 1.62  33 1.62  68 1.62  37 1.63 109 3.09  85 3.12 110 3.12
  79  0.997  0.773  0.894-   9 1.62  75 1.62  36 1.63  65 1.63  94 3.10 105 3.12 101 3.14  84 3.14

  80  0.898  0.333  0.231-  31 1.62  20 1.62  55 1.63  73 1.63  90 3.09  91 3.09  96 3.14
  81  0.774  1.000  0.112-  14 1.62  26 1.62  42 1.63  16 1.63 106 3.10  97 3.11  90 3.13
  82  0.098  0.432  0.567-  28 1.61  46 1.62   7 1.63  70 1.63  91 3.05  88 3.10 100 3.14
  83  0.334  0.444  0.776-  10 1.61  32 1.62  62 1.63  48 1.65 103 3.04 107 3.11  95 3.15
  84  0.003  0.772  0.105-  11 1.62  24 1.62  36 1.63  58 1.63  96 3.08  97 3.13  86 3.13  79 3.14

  85  0.331  0.895  0.773-  33 1.62  57 1.62  52 1.63  59 1.63 101 3.09  78 3.12  92 3.12  94 3.14

  86  0.230  0.001  0.103-  11 1.62  30 1.62  45 1.63  63 1.63 111 3.11 101 3.12  84 3.13  87 3.14

  87  0.230  0.229  0.104-  60 1.62  23 1.62  63 1.63  39 1.63 108 3.11  90 3.12 107 3.13  86 3.14

  88  0.099  0.438  0.775-   6 1.62  12 1.62  62 1.63  46 1.63  82 3.10 104 3.10  94 3.12
  89  0.664  0.111  0.442-  21 1.61  29 1.61  35 1.63  61 1.63 110 3.10 106 3.11 112 3.12  91 3.14

  90  0.002  0.228  0.109-  20 1.62  60 1.62  64 1.62  16 1.63  80 3.09  87 3.12  81 3.13 104 3.13

  91  0.898  0.335  0.438-  29 1.61  18 1.62  28 1.62  55 1.62  82 3.05  80 3.09  89 3.14
  92  0.336  0.895  0.564-  15 1.62  19 1.62  56 1.62  52 1.62 112 3.10  85 3.12 110 3.13 100 3.15

  93  0.902  0.567  0.437-  41 1.61  18 1.62  22 1.62  38 1.63 100 3.08  98 3.11  96 3.13
  94  0.102  0.666  0.772-  75 1.62  12 1.62  59 1.63  34 1.63  79 3.10  88 3.12 100 3.13  85 3.14

  95  0.331  0.439  0.565-  48 1.61  25 1.61   7 1.61  67 1.71  83 3.15
  96  0.899  0.562  0.227-  31 1.62  24 1.62  38 1.63  69 1.63  84 3.08 102 3.12  93 3.13  80 3.14

  97  0.776  0.774  0.111-  77 1.62  49 1.62  14 1.62  58 1.63 102 3.09  81 3.11  84 3.13
  98  0.670  0.555  0.439-  72 1.58  41 1.63  54 1.63  53 1.65  99 3.10  93 3.11   1 3.22
  99  0.440  0.334  0.437-  13 1.62  53 1.62  40 1.64  25 1.64  98 3.10 108 3.10 112 3.13
 100  0.108  0.665  0.562-  15 1.62  22 1.62  34 1.63  70 1.64  93 3.08  94 3.13  82 3.14  92 3.15

 101  0.226  0.001  0.894-  57 1.62  17 1.62  45 1.63  65 1.63  85 3.09  86 3.12 107 3.13  79 3.14

 102  0.670  0.558  0.227-  54 1.62  77 1.62  50 1.62  69 1.63  97 3.09 108 3.11  96 3.12
 103  0.556  0.665  0.781-  44 1.60  74 1.63  68 1.64  10 1.64  83 3.04 105 3.10   1 3.19
 104  0.997  0.227  0.898-  51 1.62   6 1.62  64 1.62  76 1.63  88 3.10 109 3.12 107 3.13  90 3.13

 105  0.770  0.773  0.899-  74 1.61   9 1.62  49 1.62  66 1.63 103 3.10  79 3.12 109 3.12
 106  0.668  0.105  0.233-  26 1.62   8 1.62  35 1.63  73 1.63  81 3.10  89 3.11 111 3.13
 107  0.225  0.228  0.894-  17 1.62  32 1.62  76 1.63  39 1.63  83 3.11 101 3.13 104 3.13  87 3.13

 108  0.440  0.335  0.229-  50 1.62  23 1.62  71 1.63  40 1.64  99 3.10  87 3.11 102 3.11
 109  0.769  0.000  0.901-  27 1.62  51 1.62  42 1.63  66 1.63  78 3.09 104 3.12 105 3.12
 110  0.570  0.906  0.569-  43 1.59  21 1.62  37 1.63  19 1.64  89 3.10  78 3.12  92 3.13   1 3.18

 111  0.439  0.103  0.230-  30 1.62   8 1.62  71 1.63  47 1.63 112 3.10  86 3.11 106 3.13
 112  0.432  0.102  0.438-  56 1.62  13 1.63  61 1.63  47 1.63  92 3.10 111 3.10  89 3.12  99 3.13

 
  LATTYP: Found a triclinic cell.
 ALAT       =    13.7322043366
 B/A-ratio  =     0.9994204432
 C/A-ratio  =     1.0843400083
 COS(alpha) =     0.0000550690
 COS(beta)  =     0.0002592819
 COS(gamma) =     0.4999019569
  
  Lattice vectors:
  
 A1 = (   6.8687391400, -11.8909148200,  -0.0018197300)
 A2 = (  -6.8608326700, -11.8862902600,  -0.0004082900)
 A3 = (   0.0015106500,  -0.0013072700, -14.8903784300)


Analysis of symmetry for initial positions (statically):
=====================================================================
 Subroutine PRICEL returns:
 Original cell was already a primitive cell.
 

 Routine SETGRP: Setting up the symmetry group for a 
 triclinic supercell.


 Subroutine GETGRP returns: Found  1 space group operations
 (whereof  1 operations were pure point group operations)
 out of a pool of  2 trial point group operations.


The static configuration has the point symmetry C_1 .


Analysis of symmetry for dynamics (positions and initial velocities):
=====================================================================
 Subroutine PRICEL returns:
 Original cell was already a primitive cell.
 

 Routine SETGRP: Setting up the symmetry group for a 
 triclinic supercell.


 Subroutine GETGRP returns: Found  1 space group operations
 (whereof  1 operations were pure point group operations)
 out of a pool of  2 trial point group operations.


The dynamic configuration has the point symmetry C_1 .


 Subroutine INISYM returns: Found  1 space group operations
 (whereof  1 operations are pure point group operations),
 and found     1 'primitive' translations

 
 
 KPOINTS: KPOINTS created by Atomic Simulation Env

Automatic generation of k-mesh.
Space group operators:
 irot       det(A)        alpha          n_x          n_y          n_z        tau_x        tau_y        tau_z
    1     1.000000     0.000000     1.000000     0.000000     0.000000     0.000000     0.000000     0.000000
 
 Subroutine IBZKPT returns following result:
 ===========================================
 
 Found      1 irreducible k-points:
 
 Following reciprocal coordinates:
            Coordinates               Weight
  0.000000  0.000000  0.000000      1.000000
 
 Following cartesian coordinates:
            Coordinates               Weight
  0.000000  0.000000  0.000000      1.000000
 


--------------------------------------------------------------------------------------------------------




 Dimension of arrays:
   k-points           NKPTS =      1   k-points in BZ     NKDIM =      1   number of bands    NBANDS=    352
   number of dos      NEDOS =    301   number of ions     NIONS =    112
   non local maximal  LDIM  =      4   non local SUM 2l+1 LMDIM =      8
   total plane-waves  NPLWV = 392000
   max r-space proj   IRMAX =   1827   max aug-charges    IRDMAX=   6476
   dimension x,y,z NGX =    70 NGY =   70 NGZ =   80
   dimension x,y,z NGXF=   140 NGYF=  140 NGZF=  160
   support grid    NGXF=   140 NGYF=  140 NGZF=  160
   ions per type =               1   1   3  72  35
 NGX,Y,Z   is equivalent  to a cutoff of   8.48,  8.47,  8.93 a.u.
 NGXF,Y,Z  is equivalent  to a cutoff of  16.95, 16.95, 17.86 a.u.


 I would recommend the setting:
   dimension x,y,z NGX =    67 NGY =   67 NGZ =   73
 SYSTEM =  unknown system                          
 POSCAR =  Al  C  H  O Si                          

 Startparameter for this run:
   NWRITE =      2    write-flag & timer
   PREC   = normal    normal or accurate (medium, high low for compatibility)
   ISTART =      0    job   : 0-new  1-cont  2-samecut
   ICHARG =      2    charge: 1-file 2-atom 10-const
   ISPIN  =      1    spin polarized calculation?
   LNONCOLLINEAR =      F non collinear calculations
   LSORBIT =      F    spin-orbit coupling
   INIWAV =      1    electr: 0-lowe 1-rand  2-diag
   LASPH  =      F    aspherical Exc in radial PAW
   METAGGA=      F    non-selfconsistent MetaGGA calc.

 Electronic Relaxation 1
   ENCUT  =  400.0 eV  29.40 Ry    5.42 a.u.  22.39 22.39 24.28*2*pi/ulx,y,z
   ENINI  =  400.0     initial cutoff
   ENAUG  =  644.9 eV  augmentation charge cutoff
   NELM   =     60;   NELMIN=  2; NELMDL= -5     # of ELM steps 
   EDIFF  = 0.1E-05   stopping-criterion for ELM
   LREAL  =      T    real-space projection
   NLSPLINE    = F    spline interpolate recip. space projectors
   LCOMPAT=      F    compatible to vasp.4.4
   GGA_COMPAT  = T    GGA compatible to vasp.4.4-vasp.4.6
   LMAXPAW     = -100 max onsite density
   LMAXMIX     =    2 max onsite mixed and CHGCAR
   VOSKOWN=      0    Vosko Wilk Nusair interpolation
   ROPT   =   -0.00050  -0.00050  -0.00050  -0.00050
   ROPT   =   -0.00050
 Ionic relaxation
   EDIFFG = 0.1E-04   stopping-criterion for IOM
   NSW    =      0    number of steps for IOM
   NBLOCK =      1;   KBLOCK =      1    inner block; outer block 
   IBRION =     -1    ionic relax: 0-MD 1-quasi-New 2-CG
   NFREE  =      0    steps in history (QN), initial steepest desc. (CG)
   ISIF   =      2    stress and relaxation
   IWAVPR =     10    prediction:  0-non 1-charg 2-wave 3-comb
   ISYM   =      2    0-nonsym 1-usesym 2-fastsym
   LCORR  =      T    Harris-Foulkes like correction to forces

   POTIM  = 0.5000    time-step for ionic-motion
   TEIN   =    0.0    initial temperature
   TEBEG  =    0.0;   TEEND  =   0.0 temperature during run
   SMASS  =  -3.00    Nose mass-parameter (am)
   estimated Nose-frequenzy (Omega)   =  0.10E-29 period in steps =****** mass=  -0.431E-26a.u.
   SCALEE = 1.0000    scale energy and forces
   NPACO  =    256;   APACO  = 16.0  distance and # of slots for P.C.
   PSTRESS=    0.0 pullay stress

  Mass of Ions in am
   POMASS =  26.98 12.01  1.00 16.00 28.09
  Ionic Valenz
   ZVAL   =   3.00  4.00  1.00  6.00  4.00
  Atomic Wigner-Seitz radii
   RWIGS  =  -1.00 -1.00 -1.00 -1.00 -1.00
  virtual crystal weights 
   VCA    =   1.00  1.00  1.00  1.00  1.00
   NELECT =     582.0000    total number of electrons
   NUPDOWN=      -1.0000    fix difference up-down

 DOS related values:
   EMIN   =  10.00;   EMAX   =-10.00  energy-range for DOS
   EFERMI =   0.00
   ISMEAR =     0;   SIGMA  =   0.01  broadening in eV -4-tet -1-fermi 0-gaus

 Electronic relaxation 2 (details)
   IALGO  =     38    algorithm
   LDIAG  =      T    sub-space diagonalisation (order eigenvalues)
   LSUBROT=      F    optimize rotation matrix (better conditioning)
   TURBO    =      0    0=normal 1=particle mesh
   IRESTART =      0    0=no restart 2=restart with 2 vectors
   NREBOOT  =      0    no. of reboots
   NMIN     =      0    reboot dimension
   EREF     =   0.00    reference energy to select bands
   IMIX   =      4    mixing-type and parameters
     AMIX     =   0.40;   BMIX     =  1.00
     AMIX_MAG =   1.60;   BMIX_MAG =  1.00
     AMIN     =   0.10
     WC   =   100.;   INIMIX=   1;  MIXPRE=   1;  MAXMIX= -45

 Intra band minimization:
   WEIMIN = 0.0000     energy-eigenvalue tresh-hold
   EBREAK =  0.71E-09  absolut break condition
   DEPER  =   0.30     relativ break condition  

   TIME   =   0.40     timestep for ELM

  volume/ion in A,a.u.               =      21.70       146.44
  Fermi-wavevector in a.u.,A,eV,Ry     =   1.016603  1.921101 14.061368  1.033481
  Thomas-Fermi vector in A             =   2.149956
 
 Write flags
   LWAVE  =      F    write WAVECAR
   LCHARG =      F    write CHGCAR
   LVTOT  =      F    write LOCPOT, total local potential
   LVHAR  =      F    write LOCPOT, Hartree potential only
   LELF   =      F    write electronic localiz. function (ELF)
   LORBIT =      0    0 simple, 1 ext, 2 COOP (PROOUT)


 Dipole corrections
   LMONO  =      F    monopole corrections only (constant potential shift)
   LDIPOL =      F    correct potential (dipole corrections)
   IDIPOL =      0    1-x, 2-y, 3-z, 4-all directions 
   EPSILON=  1.0000000 bulk dielectric constant

 Exchange correlation treatment:
   GGA     =    --    GGA type
   LEXCH   =     8    internal setting for exchange type
   VOSKOWN=      0    Vosko Wilk Nusair interpolation
   LHFCALC =     F    Hartree Fock is set to
   LHFONE  =     F    Hartree Fock one center treatment
   AEXX    =    0.0000 exact exchange contribution

 Linear response parameters
   LEPSILON=     F    determine dielectric tensor
   LRPA    =     F    only Hartree local field effects (RPA)
   LNABLA  =     F    use nabla operator in PAW spheres
   LVEL    =     F    velocity operator in full k-point grid
   LINTERFAST=   F  fast interpolation
   KINTER  =     0    interpolate to denser k-point grid
   CSHIFT  =0.1000    complex shift for real part using Kramers Kronig
   OMEGAMAX=  -1.0    maximum frequency
   DEG_THRESHOLD= 0.2000000E-02 threshold for treating states as degnerate
   RTIME   =    0.100 relaxation time in fs

 Orbital magnetization related:
   ORBITALMAG=     F  switch on orbital magnetization
   LCHIMAG   =     F  perturbation theory with respect to B field
   DQ        =  0.001000  dq finite difference perturbation B field



--------------------------------------------------------------------------------------------------------


 Static calculation
 charge density and potential will be updated during run
 non-spin polarized calculation
 Variant of blocked Davidson
 Davidson routine will perform the subspace rotation
 perform sub-space diagonalisation
    after iterative eigenvector-optimisation
 modified Broyden-mixing scheme, WC =      100.0
 initial mixing is a Kerker type mixing with AMIX =  0.4000 and BMIX =      1.0000
 Hartree-type preconditioning will be used
 using additional bands           61
 real space projection scheme for non local part
 use partial core corrections
 calculate Harris-corrections to forces 
   (improved forces if not selfconsistent)
 use gradient corrections 
 use of overlap-Matrix (Vanderbilt PP)
 Gauss-broadening in eV      SIGMA  =   0.01


--------------------------------------------------------------------------------------------------------


  energy-cutoff  :      400.00
  volume of cell :     2430.49
      direct lattice vectors                 reciprocal lattice vectors
    13.729571810 -0.004624560 -0.001411440     0.072849658  0.042081312  0.000003696
    -6.868739140 11.890914820  0.001819730     0.000028332  0.084114186 -0.000007382
    -0.001510650  0.001307270 14.890378430     0.000006902 -0.000006291  0.067157462

  length of vectors
    13.729572661 13.732204337 14.890378564     0.084130313  0.084114191  0.067157462


 
 k-points in units of 2pi/SCALE and weight: KPOINTS created by Atomic Simulation Env
   0.00000000  0.00000000  0.00000000       1.000
 
 k-points in reciprocal lattice and weights: KPOINTS created by Atomic Simulation Env
   0.00000000  0.00000000  0.00000000       1.000
 
 position of ions in fractional coordinates (direct lattice) 
   0.57249372  0.67554592  0.56728954
   0.39321313  0.60545046  0.44262211
   0.43476667  0.69725171  0.44065098
   0.42637827  0.57394246  0.39006743
   0.30209358  0.56867927  0.43618297
   0.01522361  0.33450517  0.83929938
   0.20548918  0.41445092  0.54616531
   0.54940271  0.09589788  0.20303674
   0.87731309  0.76163771  0.86829094
   0.44464973  0.55087847  0.81729504
   0.12341309  0.88031015  0.13085384
   0.09053327  0.54739261  0.80217595
   0.41346931  0.20738614  0.46027522
   0.76449373  0.88101314  0.14070085
   0.22035092  0.78184405  0.53718805
   0.90359077  0.09935682  0.13013388
   0.23674387  0.12034119  0.86710643
   0.87834791  0.44024690  0.45533002
   0.43904508  0.87095724  0.54594460
   0.98530311  0.31624797  0.16849638
   0.65322161  0.01563258  0.51026184
   0.00830725  0.65431473  0.49709153
   0.33653545  0.31529162  0.16488467
   0.98725663  0.66565847  0.16392434
   0.36031160  0.36069915  0.50226894
   0.68694157  0.01769043  0.17331591
   0.66129774  0.98303894  0.84416018
   0.99785478  0.34431523  0.50255393
   0.78328619  0.22234520  0.46384235
   0.33706553  0.02017229  0.16377076
   0.91029598  0.45313972  0.20404400
   0.30928733  0.33158303  0.82944381
   0.44883911  0.90505451  0.80463971
   0.07143340  0.66316939  0.66615782
   0.66267684  0.07175620  0.33832304
   0.99849202  0.74038115  0.99932319
   0.59542187  0.93861405  0.67523249
   0.93083883  0.59944377  0.33121548
   0.25992491  0.26229139  0.99865645
   0.40654721  0.34198952  0.33323102
   0.79099343  0.57074199  0.46637365
   0.74202198  0.99931438  0.00727263
   0.58785116  0.80379277  0.54187486
   0.57911399  0.64903966  0.67834841
   0.26142421  0.00111730  0.99809568
   0.05921947  0.40197401  0.67091894
   0.40147092  0.06384577  0.33319116
   0.35390664  0.42835769  0.66930321
   0.74511143  0.74539440  0.00542472
   0.55008144  0.45108596  0.19851417
   0.87625952  0.12033260  0.87180801
   0.33405265  0.92796765  0.66802737
   0.57260123  0.42245846  0.45405566
   0.67020305  0.58571549  0.33262247
   0.93463350  0.33343675  0.33477763
   0.34850953  0.99755163  0.50113946
   0.31212536  0.98334595  0.83152756
   0.90453281  0.80140056  0.12913994
   0.23068968  0.76622109  0.79081438
   0.12280668  0.24026629  0.13410507
   0.56357888  0.14002164  0.45702532
   0.22822627  0.46605691  0.78555688
   0.20026648  0.09964579  0.12193778
   0.99949159  0.25835639  0.00366012
   0.09648652  0.90196592  0.87651758
   0.79918141  0.90195239  0.87869365
   0.41816122  0.57514010  0.53187408
   0.53233970  0.76945778  0.79406237
   0.77021810  0.53114493  0.20474480
   0.13370985  0.56179636  0.54427978
   0.46764156  0.23306995  0.21727645
   0.64486158  0.63701216  0.49716759
   0.76879166  0.23391349  0.21498261
   0.66071879  0.68368193  0.84410141
   0.01442091  0.68622429  0.83142245
   0.09541697  0.19738627  0.87701459
   0.68711231  0.66624328  0.16948203
   0.55982270  0.89780245  0.77848325
   0.99692848  0.77280202  0.89431547
   0.89847524  0.33348015  0.23064717
   0.77446247  0.99957663  0.11228879
   0.09823209  0.43169098  0.56700340
   0.33390539  0.44444096  0.77607744
   0.00297083  0.77208422  0.10516433
   0.33147853  0.89500171  0.77327393
   0.23046851  0.00062283  0.10349400
   0.23010828  0.22884291  0.10416617
   0.09867356  0.43756243  0.77484157
   0.66443118  0.11143867  0.44187277
   0.00229808  0.22759038  0.10860770
   0.89810082  0.33510410  0.43830630
   0.33634796  0.89507802  0.56355796
   0.90172665  0.56656123  0.43673228
   0.10210581  0.66642332  0.77231798
   0.33141157  0.43864342  0.56471271
   0.89899160  0.56239523  0.22663546
   0.77596409  0.77363943  0.11081701
   0.66954233  0.55534451  0.43873099
   0.44007807  0.33367042  0.43721888
   0.10797783  0.66499368  0.56194015
   0.22586603  0.00098516  0.89383365
   0.66999627  0.55848256  0.22696865
   0.55599961  0.66479239  0.78099630
   0.99676137  0.22722078  0.89816608
   0.77034341  0.77347561  0.89915792
   0.66750580  0.10532450  0.23285158
   0.22503833  0.22813831  0.89386923
   0.44015396  0.33469779  0.22895304
   0.76940780  0.00037344  0.90080033
   0.56951514  0.90559986  0.56911658
   0.43888189  0.10349140  0.22965273
   0.43249492  0.10224134  0.43778259
 
 position of ions in cartesian coordinates  (Angst):
   3.21908796  8.03095306  8.44757720
   1.23929799  7.19812004  6.59135748
   1.17925444  8.28952614  6.56211501
   1.91114078  6.82323901  5.80869426
   0.24084702  6.76128992  6.49553794
  -2.08988299  3.97859927 12.49807261
  -0.02630187  4.92796428  8.13307230
   6.88405972  1.13803820  3.02269295
   6.81233064  9.05364704 12.92932838
   2.31977524  6.54946108 12.17020729
  -4.35240958 10.46729334  1.94989093
  -2.51812582  6.50962888 11.94557179
   4.25157997  2.46470052  6.85346601
   4.44450958 10.47270069  2.09561307
  -2.34577055  9.29652422  8.00004509
  11.72326170  1.17743489  1.93664816
   2.42248983  1.43100555 12.91142772
   9.03471175  5.23147165  6.77959770
   0.04469814 10.35516166  8.13028692
  11.35531045  3.75614135  2.50815965
   8.86030606  0.18353186  7.59709836
  -4.38101314  7.78101214  7.40305995
   2.45458265  3.74776502  2.45529388
   8.98212878  7.91093683  2.44071332
   2.46861686  4.28803319  7.47912241
   9.30964085  0.20740516  2.57980210
   2.32582154 11.68727763 12.57072002
  11.33434818  4.09026541  7.48243635
   9.22625211  2.64087185  6.90608717
   4.48895980  0.23852229  2.43816955
   9.38516726  5.38430283  3.03783214
   1.96757227  3.94247955 12.35089907
  -0.05543007 10.76090228 11.98240323
  -3.57539388  7.88623123  9.92044800
   8.60488355  0.85062455  5.03695335
   8.62187328  8.80049799 14.88023846
   1.72677222 11.15910886 10.05533493
   8.66209532  7.12406308  4.93170084
   1.76553796  3.11898805 14.87048289
   3.23217892  4.06512377  4.96198450
   6.93901873  6.78359607  6.94440229
   3.32360328 11.87934015  0.10906338
   2.54908327  9.55582118  8.06935470
   3.49187825  7.71588395 10.10122822
   3.58006025  0.01338153 14.86165543
  -1.94901017  4.78044192  9.99088481
   5.07298055  0.75776356  4.96089199
   1.91569831  5.09280310  9.96645806
   5.11013300  8.85998260  0.08108087
   4.45369096  5.36154035  2.95599556
  11.20281777  1.42795207 12.98053337
  -1.78857703 11.03371273  9.94839750
   4.95912683  5.02136311  6.76102117
   5.17797152  6.96202843  4.95299435
  10.54132197  3.96098337  4.98425319
  -2.06779235 11.86084488  7.46347958
  -2.47025542 11.69252652 12.38310892
   6.91404169  9.52537155  1.92312422
  -2.09689691  9.11103668 11.77659410
   0.03555408  2.85659337  1.99713913
   6.77523418  1.66297655  6.80473931
  -0.06896108  5.54181451 11.69776519
   2.06494788  1.18411286  1.81559835
  11.94800338  3.06747640  0.05355999
  -4.87197412 10.72589956 13.05318362
   4.77581548 10.72249187 13.08459429
   1.78988371  6.83770343  7.92026272
   2.02239182  9.14813314 11.82453803
   6.92615945  6.31250486  3.04860698
  -2.02387588  6.68036583  8.10536549
   4.81929346  2.76953633  3.23509264
   4.47745197  7.57232507  7.40326256
   8.94816480  2.77817110  3.20051297
   4.37407810  8.12765153 12.56930098
  -4.51675871  8.16085478 12.38142330
  -0.04708552  2.34780856 13.05930365
   4.85725048  7.91928606  2.52389413
   1.51817912 10.67412121 11.59275380
   8.37787468  9.18588175 13.31669497
  10.04474374  3.96153052  3.43376235
   3.76703735 11.88244581  1.67274843
  -1.61734474  5.13348762  8.44354211
   1.53045663  5.28427998 11.55642425
  -5.26261574  9.18091143  1.56733746
  -1.59764314 10.64186703 11.51550225
   3.15979956  0.00647550  1.54074067
   1.58726854  2.72022357  1.55116534
  -1.65192698  5.20357419 11.53834117
   8.35624493  1.32261268  6.57891775
  -1.53187136  2.70638917  1.61762066
  10.02813493  3.98111397  6.52588886
  -1.53099530 10.64247775  8.39274536
   8.48809975  6.73333216  6.50286718
  -3.17678559  7.92492037 11.50117558
   1.53635864  5.21507714  8.40911640
   8.47948123  6.68353261  3.37444230
   5.33955986  9.19583694  1.65041980
   5.37735016  6.60103147  6.53293603
   3.74952791  3.96618294  6.51034063
  -3.08602764  7.90761846  8.36855919
   3.09292680  0.01183840 13.30920430
   5.36234801  6.63806682  3.37971972
   3.06617125  7.90343940 11.62975544
  12.12302973  2.69842750 13.37303944
   5.26232466  9.19494554 13.38912192
   8.44077054  1.24962214  3.46649766
   1.52130705  2.71290104 13.31014862
   3.74382772  3.97812670  3.40918522
  10.55971379  0.00205996 13.41217251
   1.59801007 10.76652103  8.47520536
   5.31445807  1.22887800  3.41918493
   5.23503963  1.21431527  6.51832405
 


--------------------------------------------------------------------------------------------------------


 k-point  1 :   0.0000 0.0000 0.0000  plane waves:   44137

 maximum and minimum number of plane-waves per node :      7363     7350

 maximum number of plane-waves:     44137
 maximum index in each direction: 
   IXMAX=   22   IYMAX=   22   IZMAX=   24
   IXMIN=  -22   IYMIN=  -22   IZMIN=  -24

 WARNING: aliasing errors must be expected set NGX to  90 to avoid them
 WARNING: aliasing errors must be expected set NGY to  90 to avoid them
 WARNING: aliasing errors must be expected set NGZ to  98 to avoid them
 aliasing errors are usually negligible using standard VASP settings
 and one can safely disregard these warnings

 real space projection operators:
  total allocation   :      10727.20 KBytes
  max/ min on nodes  :       1852.96       1693.47


 parallel 3D FFT for wavefunctions:
    minimum data exchange during FFTs selected (reduces bandwidth)
 parallel 3D FFT for charge:
    minimum data exchange during FFTs selected (reduces bandwidth)


 total amount of memory used by VASP on root node    53522. kBytes
========================================================================

   base      :      30000. kBytes
   nonlr-proj:       5696. kBytes
   fftplans  :       4343. kBytes
   grid      :       8131. kBytes
   one-center:         58. kBytes
   wavefun   :       5294. kBytes
 
     INWAV:  cpu time    0.0001: real time    0.0005
 Broyden mixing: mesh for mixing (old mesh)
   NGX = 45   NGY = 45   NGZ = 49
  (NGX  =140   NGY  =140   NGZ  =160)
  gives a total of  99225 points

 initial charge density was supplied:
 charge density of overlapping atoms calculated
 number of electron     582.0000000 magnetization 
 keeping initial charge density in first step


--------------------------------------------------------------------------------------------------------


 Maximum index for non-local projection operator          360
 Maximum index for augmentation-charges          337 (set IRDMAX)


--------------------------------------------------------------------------------------------------------


 First call to EWALD:  gamma=   0.132
 Maximum number of real-space cells 3x 3x 3
 Maximum number of reciprocal cells 3x 3x 3

 FEWALD executed in parallel
    FEWALD:  cpu time    0.0159: real time    0.0160


----------------------------------------- Iteration    1(   1)  ---------------------------------------


    POTLOK:  cpu time    0.0850: real time    0.0857
    SETDIJ:  cpu time    0.0064: real time    0.0066
     EDDAV:  cpu time    2.2259: real time    2.2401
       DOS:  cpu time    0.0004: real time    0.0004
    --------------------------------------------
      LOOP:  cpu time    2.3249: real time    2.3477

 eigenvalue-minimisations  :   760
 total energy-change (2. order) : 0.4426201E+04  (-0.2449240E+05)
 number of electron     582.0000000 magnetization 
 augmentation part      582.0000000 magnetization 

 Free energy of the ion-electron system (eV)
  ---------------------------------------------------
  alpha Z        PSCENC =       476.21782361
  Ewald energy   TEWEN  =     -2498.76010831
  -Hartree energ DENC   =    -28673.10673031
  -exchange      EXHF   =         0.00000000
  -V(xc)+E(xc)   XCENC  =      1690.22413591
  PAW double counting   =     28217.01960844   -27699.40053531
  entropy T*S    EENTRO =        -0.00014492
  eigenvalues    EBANDS =     -2054.34601503
  atomic energy  EATOM  =     34968.35250874
  Solvation  Ediel_sol  =         0.00000000
  ---------------------------------------------------
  free energy    TOTEN  =      4426.20054283 eV

  energy without entropy =     4426.20068775  energy(sigma->0) =     4426.20061529


--------------------------------------------------------------------------------------------------------




----------------------------------------- Iteration    1(   2)  ---------------------------------------


     EDDAV:  cpu time    2.4320: real time    2.4419
       DOS:  cpu time    0.0004: real time    0.0004
    --------------------------------------------
      LOOP:  cpu time    2.4341: real time    2.4465

 eigenvalue-minimisations  :   864
 total energy-change (2. order) :-0.4841893E+04  (-0.4742790E+04)
 number of electron     582.0000000 magnetization 
 augmentation part      582.0000000 magnetization 

 Free energy of the ion-electron system (eV)
  ---------------------------------------------------
  alpha Z        PSCENC =       476.21782361
  Ewald energy   TEWEN  =     -2498.76010831
  -Hartree energ DENC   =    -28673.10673031
  -exchange      EXHF   =         0.00000000
  -V(xc)+E(xc)   XCENC  =      1690.22413591
  PAW double counting   =     28217.01960844   -27699.40053531
  entropy T*S    EENTRO =        -0.00000000
  eigenvalues    EBANDS =     -6896.23965390
  atomic energy  EATOM  =     34968.35250874
  Solvation  Ediel_sol  =         0.00000000
  ---------------------------------------------------
  free energy    TOTEN  =      -415.69295113 eV

  energy without entropy =     -415.69295113  energy(sigma->0) =     -415.69295113


--------------------------------------------------------------------------------------------------------




----------------------------------------- Iteration    1(   3)  ---------------------------------------


     EDDAV:  cpu time    2.3082: real time    2.3158
       DOS:  cpu time    0.0016: real time    0.0016
    --------------------------------------------
      LOOP:  cpu time    2.3123: real time    2.3228

 eigenvalue-minimisations  :   816
 total energy-change (2. order) :-0.5605309E+03  (-0.5584000E+03)
 number of electron     582.0000000 magnetization 
 augmentation part      582.0000000 magnetization 

 Free energy of the ion-electron system (eV)
  ---------------------------------------------------
  alpha Z        PSCENC =       476.21782361
  Ewald energy   TEWEN  =     -2498.76010831
  -Hartree energ DENC   =    -28673.10673031
  -exchange      EXHF   =         0.00000000
  -V(xc)+E(xc)   XCENC  =      1690.22413591
  PAW double counting   =     28217.01960844   -27699.40053531
  entropy T*S    EENTRO =        -0.00000000
  eigenvalues    EBANDS =     -7456.77054940
  atomic energy  EATOM  =     34968.35250874
  Solvation  Ediel_sol  =         0.00000000
  ---------------------------------------------------
  free energy    TOTEN  =      -976.22384662 eV

  energy without entropy =     -976.22384662  energy(sigma->0) =     -976.22384662


--------------------------------------------------------------------------------------------------------




----------------------------------------- Iteration    1(   4)  ---------------------------------------


     EDDAV:  cpu time    2.2484: real time    2.2586
       DOS:  cpu time    0.0002: real time    0.0002
    --------------------------------------------
      LOOP:  cpu time    2.2924: real time    2.3109

 eigenvalue-minimisations  :   832
 total energy-change (2. order) :-0.1320699E+02  (-0.1316528E+02)
 number of electron     582.0000000 magnetization 
 augmentation part      582.0000000 magnetization 

 Free energy of the ion-electron system (eV)
  ---------------------------------------------------
  alpha Z        PSCENC =       476.21782361
  Ewald energy   TEWEN  =     -2498.76010831
  -Hartree energ DENC   =    -28673.10673031
  -exchange      EXHF   =         0.00000000
  -V(xc)+E(xc)   XCENC  =      1690.22413591
  PAW double counting   =     28217.01960844   -27699.40053531
  entropy T*S    EENTRO =        -0.00000000
  eigenvalues    EBANDS =     -7469.97754033
  atomic energy  EATOM  =     34968.35250874
  Solvation  Ediel_sol  =         0.00000000
  ---------------------------------------------------
  free energy    TOTEN  =      -989.43083755 eV

  energy without entropy =     -989.43083755  energy(sigma->0) =     -989.43083755


--------------------------------------------------------------------------------------------------------




----------------------------------------- Iteration    1(   5)  ---------------------------------------


     EDDAV:  cpu time    2.2418: real time    2.2532
       DOS:  cpu time    0.0003: real time    0.0003
    CHARGE:  cpu time    0.0822: real time    0.0827
    MIXING:  cpu time    0.0030: real time    0.0037
    --------------------------------------------
      LOOP:  cpu time    2.3307: real time    2.3452

 eigenvalue-minimisations  :   840
 total energy-change (2. order) :-0.4163637E+00  (-0.4159290E+00)
 number of electron     582.0000143 magnetization 
 augmentation part       53.4278345 magnetization 

 Broyden mixing:
  rms(total) = 0.85688E+01    rms(broyden)= 0.85643E+01
  rms(prec ) = 0.93399E+01
  weight for this iteration     100.00

 Free energy of the ion-electron system (eV)
  ---------------------------------------------------
  alpha Z        PSCENC =       476.21782361
  Ewald energy   TEWEN  =     -2498.76010831
  -Hartree energ DENC   =    -28673.10673031
  -exchange      EXHF   =         0.00000000
  -V(xc)+E(xc)   XCENC  =      1690.22413591
  PAW double counting   =     28217.01960844   -27699.40053531
  entropy T*S    EENTRO =        -0.00000000
  eigenvalues    EBANDS =     -7470.39390407
  atomic energy  EATOM  =     34968.35250874
  Solvation  Ediel_sol  =         0.00000000
  ---------------------------------------------------
  free energy    TOTEN  =      -989.84720129 eV

  energy without entropy =     -989.84720129  energy(sigma->0) =     -989.84720129


--------------------------------------------------------------------------------------------------------




----------------------------------------- Iteration    1(   6)  ---------------------------------------


    POTLOK:  cpu time    0.0514: real time    0.0516
    SETDIJ:  cpu time    0.0062: real time    0.0062
     EDDAV:  cpu time    2.1687: real time    2.1764
       DOS:  cpu time    0.0005: real time    0.0005
    CHARGE:  cpu time    0.0625: real time    0.0627
    MIXING:  cpu time    0.0021: real time    0.0023
    --------------------------------------------
      LOOP:  cpu time    2.2945: real time    2.3041

 eigenvalue-minimisations  :   800
 total energy-change (2. order) : 0.1161096E+03  (-0.5075732E+02)
 number of electron     582.0000119 magnetization 
 augmentation part       43.3298567 magnetization 

 Broyden mixing:
  rms(total) = 0.39694E+01    rms(broyden)= 0.39675E+01
  rms(prec ) = 0.40529E+01
  weight for this iteration     100.00

 eigenvalues of (default mixing * dielectric matrix)
  average eigenvalue GAMMA=   1.1547
  1.1547

 Free energy of the ion-electron system (eV)
  ---------------------------------------------------
  alpha Z        PSCENC =       476.21782361
  Ewald energy   TEWEN  =     -2498.76010831
  -Hartree energ DENC   =    -30045.36448259
  -exchange      EXHF   =         0.00000000
  -V(xc)+E(xc)   XCENC  =      1777.45947724
  PAW double counting   =     49566.58049972   -49073.22976637
  entropy T*S    EENTRO =        -0.00000000
  eigenvalues    EBANDS =     -6044.99352876
  atomic energy  EATOM  =     34968.35250874
  Solvation  Ediel_sol  =         0.00000000
  ---------------------------------------------------
  free energy    TOTEN  =      -873.73757671 eV

  energy without entropy =     -873.73757671  energy(sigma->0) =     -873.73757671


--------------------------------------------------------------------------------------------------------




----------------------------------------- Iteration    1(   7)  ---------------------------------------


    POTLOK:  cpu time    0.0498: real time    0.0508
    SETDIJ:  cpu time    0.0051: real time    0.0051
     EDDAV:  cpu time    2.3964: real time    2.4059
       DOS:  cpu time    0.0004: real time    0.0004
    CHARGE:  cpu time    0.0794: real time    0.0796
    MIXING:  cpu time    0.0014: real time    0.0014
    --------------------------------------------
      LOOP:  cpu time    2.5354: real time    2.5475

 eigenvalue-minimisations  :   920
 total energy-change (2. order) : 0.5084158E+00  (-0.1639307E+01)
 number of electron     582.0000117 magnetization 
 augmentation part       42.5019461 magnetization 

 Broyden mixing:
  rms(total) = 0.15066E+01    rms(broyden)= 0.15064E+01
  rms(prec ) = 0.15757E+01
  weight for this iteration     100.00

 eigenvalues of (default mixing * dielectric matrix)
  average eigenvalue GAMMA=   1.2799
  1.2799  1.2799

 Free energy of the ion-electron system (eV)
  ---------------------------------------------------
  alpha Z        PSCENC =       476.21782361
  Ewald energy   TEWEN  =     -2498.76010831
  -Hartree energ DENC   =    -30265.52939323
  -exchange      EXHF   =         0.00000000
  -V(xc)+E(xc)   XCENC  =      1789.86338046
  PAW double counting   =     72304.26020628   -71811.09903044
  entropy T*S    EENTRO =        -0.00000000
  eigenvalues    EBANDS =     -5836.53454804
  atomic energy  EATOM  =     34968.35250874
  Solvation  Ediel_sol  =         0.00000000
  ---------------------------------------------------
  free energy    TOTEN  =      -873.22916092 eV

  energy without entropy =     -873.22916092  energy(sigma->0) =     -873.22916092


--------------------------------------------------------------------------------------------------------




----------------------------------------- Iteration    1(   8)  ---------------------------------------


    POTLOK:  cpu time    0.0545: real time    0.0548
    SETDIJ:  cpu time    0.0052: real time    0.0052
     EDDAV:  cpu time    2.2257: real time    2.2333
       DOS:  cpu time    0.0005: real time    0.0005
    CHARGE:  cpu time    0.0600: real time    0.0617
    MIXING:  cpu time    0.0014: real time    0.0014
    --------------------------------------------
      LOOP:  cpu time    2.3493: real time    2.3608

 eigenvalue-minimisations  :   832
 total energy-change (2. order) : 0.4812484E+00  (-0.1158560E+00)
 number of electron     582.0000118 magnetization 
 augmentation part       42.7570366 magnetization 

 Broyden mixing:
  rms(total) = 0.60166E+00    rms(broyden)= 0.60165E+00
  rms(prec ) = 0.64615E+00
  weight for this iteration     100.00

 eigenvalues of (default mixing * dielectric matrix)
  average eigenvalue GAMMA=   1.5398
  1.0840  1.0840  2.4513

 Free energy of the ion-electron system (eV)
  ---------------------------------------------------
  alpha Z        PSCENC =       476.21782361
  Ewald energy   TEWEN  =     -2498.76010831
  -Hartree energ DENC   =    -30357.35490952
  -exchange      EXHF   =         0.00000000
  -V(xc)+E(xc)   XCENC  =      1793.92329659
  PAW double counting   =     83775.70523538   -83282.76211892
  entropy T*S    EENTRO =        -0.00000000
  eigenvalues    EBANDS =     -5748.06964008
  atomic energy  EATOM  =     34968.35250874
  Solvation  Ediel_sol  =         0.00000000
  ---------------------------------------------------
  free energy    TOTEN  =      -872.74791250 eV

  energy without entropy =     -872.74791250  energy(sigma->0) =     -872.74791250


--------------------------------------------------------------------------------------------------------




----------------------------------------- Iteration    1(   9)  ---------------------------------------


    POTLOK:  cpu time    0.0478: real time    0.0480
    SETDIJ:  cpu time    0.0075: real time    0.0075
     EDDAV:  cpu time    2.2146: real time    2.2216
       DOS:  cpu time    0.0002: real time    0.0002
    CHARGE:  cpu time    0.0588: real time    0.0589
    MIXING:  cpu time    0.0016: real time    0.0017
    --------------------------------------------
      LOOP:  cpu time    2.3320: real time    2.3426

 eigenvalue-minimisations  :   832
 total energy-change (2. order) : 0.1376736E+00  (-0.4447358E-01)
 number of electron     582.0000118 magnetization 
 augmentation part       42.6593333 magnetization 

 Broyden mixing:
  rms(total) = 0.10150E+00    rms(broyden)= 0.10148E+00
  rms(prec ) = 0.12851E+00
  weight for this iteration     100.00

 eigenvalues of (default mixing * dielectric matrix)
  average eigenvalue GAMMA=   1.5054
  2.5059  1.0329  1.0329  1.4498

 Free energy of the ion-electron system (eV)
  ---------------------------------------------------
  alpha Z        PSCENC =       476.21782361
  Ewald energy   TEWEN  =     -2498.76010831
  -Hartree energ DENC   =    -30483.26696298
  -exchange      EXHF   =         0.00000000
  -V(xc)+E(xc)   XCENC  =      1800.31560892
  PAW double counting   =     92552.96221091   -92060.80926262
  entropy T*S    EENTRO =        -0.00000000
  eigenvalues    EBANDS =     -5627.62205715
  atomic energy  EATOM  =     34968.35250874
  Solvation  Ediel_sol  =         0.00000000
  ---------------------------------------------------
  free energy    TOTEN  =      -872.61023889 eV

  energy without entropy =     -872.61023889  energy(sigma->0) =     -872.61023889


--------------------------------------------------------------------------------------------------------




----------------------------------------- Iteration    1(  10)  ---------------------------------------


    POTLOK:  cpu time    0.0509: real time    0.0510
    SETDIJ:  cpu time    0.0049: real time    0.0050
     EDDAV:  cpu time    2.1692: real time    2.1803
       DOS:  cpu time    0.0003: real time    0.0003
    CHARGE:  cpu time    0.0654: real time    0.0656
    MIXING:  cpu time    0.0016: real time    0.0016
    --------------------------------------------
      LOOP:  cpu time    2.2940: real time    2.3083

 eigenvalue-minimisations  :   808
 total energy-change (2. order) :-0.2585076E-02  (-0.8714258E-02)
 number of electron     582.0000117 magnetization 
 augmentation part       42.6008534 magnetization 

 Broyden mixing:
  rms(total) = 0.68074E-01    rms(broyden)= 0.68047E-01
  rms(prec ) = 0.87549E-01
  weight for this iteration     100.00

 eigenvalues of (default mixing * dielectric matrix)
  average eigenvalue GAMMA=   1.4455
  2.5431  1.5510  1.0272  1.0530  1.0530

 Free energy of the ion-electron system (eV)
  ---------------------------------------------------
  alpha Z        PSCENC =       476.21782361
  Ewald energy   TEWEN  =     -2498.76010831
  -Hartree energ DENC   =    -30512.05284835
  -exchange      EXHF   =         0.00000000
  -V(xc)+E(xc)   XCENC  =      1801.26523172
  PAW double counting   =     92130.53432436   -91638.33324356
  entropy T*S    EENTRO =        -0.00000000
  eigenvalues    EBANDS =     -5599.83651218
  atomic energy  EATOM  =     34968.35250874
  Solvation  Ediel_sol  =         0.00000000
  ---------------------------------------------------
  free energy    TOTEN  =      -872.61282396 eV

  energy without entropy =     -872.61282396  energy(sigma->0) =     -872.61282396


--------------------------------------------------------------------------------------------------------




----------------------------------------- Iteration    1(  11)  ---------------------------------------


    POTLOK:  cpu time    0.0488: real time    0.0490
    SETDIJ:  cpu time    0.0052: real time    0.0052
     EDDAV:  cpu time    2.2133: real time    2.2210
       DOS:  cpu time    0.0006: real time    0.0006
    CHARGE:  cpu time    0.0761: real time    0.0782
    MIXING:  cpu time    0.0020: real time    0.0020
    --------------------------------------------
      LOOP:  cpu time    2.3471: real time    2.3607

 eigenvalue-minimisations  :   784
 total energy-change (2. order) :-0.1867829E-02  (-0.2258717E-02)
 number of electron     582.0000117 magnetization 
 augmentation part       42.6327213 magnetization 

 Broyden mixing:
  rms(total) = 0.29333E-01    rms(broyden)= 0.29325E-01
  rms(prec ) = 0.49179E-01
  weight for this iteration     100.00

 eigenvalues of (default mixing * dielectric matrix)
  average eigenvalue GAMMA=   1.5101
  2.5361  2.3310  1.0552  1.0552  1.0415  1.0415

 Free energy of the ion-electron system (eV)
  ---------------------------------------------------
  alpha Z        PSCENC =       476.21782361
  Ewald energy   TEWEN  =     -2498.76010831
  -Hartree energ DENC   =    -30523.08992593
  -exchange      EXHF   =         0.00000000
  -V(xc)+E(xc)   XCENC  =      1801.35142924
  PAW double counting   =     91732.44686279   -91240.08724143
  entropy T*S    EENTRO =        -0.00000000
  eigenvalues    EBANDS =     -5589.04604051
  atomic energy  EATOM  =     34968.35250874
  Solvation  Ediel_sol  =         0.00000000
  ---------------------------------------------------
  free energy    TOTEN  =      -872.61469179 eV

  energy without entropy =     -872.61469179  energy(sigma->0) =     -872.61469179


--------------------------------------------------------------------------------------------------------




----------------------------------------- Iteration    1(  12)  ---------------------------------------


    POTLOK:  cpu time    0.0493: real time    0.0496
    SETDIJ:  cpu time    0.0049: real time    0.0050
     EDDAV:  cpu time    2.1192: real time    2.1285
       DOS:  cpu time    0.0007: real time    0.0007
    CHARGE:  cpu time    0.0574: real time    0.0576
    MIXING:  cpu time    0.0017: real time    0.0017
    --------------------------------------------
      LOOP:  cpu time    2.2353: real time    2.2469

 eigenvalue-minimisations  :   784
 total energy-change (2. order) :-0.6622435E-02  (-0.7468550E-03)
 number of electron     582.0000117 magnetization 
 augmentation part       42.6209462 magnetization 

 Broyden mixing:
  rms(total) = 0.15005E-01    rms(broyden)= 0.14996E-01
  rms(prec ) = 0.28141E-01
  weight for this iteration     100.00

 eigenvalues of (default mixing * dielectric matrix)
  average eigenvalue GAMMA=   1.5629
  2.9975  2.5211  1.2093  1.2093  0.9944  1.0046  1.0046

 Free energy of the ion-electron system (eV)
  ---------------------------------------------------
  alpha Z        PSCENC =       476.21782361
  Ewald energy   TEWEN  =     -2498.76010831
  -Hartree energ DENC   =    -30540.71477995
  -exchange      EXHF   =         0.00000000
  -V(xc)+E(xc)   XCENC  =      1801.72206253
  PAW double counting   =     91296.48514941   -90804.05303734
  entropy T*S    EENTRO =        -0.00000000
  eigenvalues    EBANDS =     -5571.87093292
  atomic energy  EATOM  =     34968.35250874
  Solvation  Ediel_sol  =         0.00000000
  ---------------------------------------------------
  free energy    TOTEN  =      -872.62131423 eV

  energy without entropy =     -872.62131423  energy(sigma->0) =     -872.62131423


--------------------------------------------------------------------------------------------------------




----------------------------------------- Iteration    1(  13)  ---------------------------------------


    POTLOK:  cpu time    0.0494: real time    0.0496
    SETDIJ:  cpu time    0.0050: real time    0.0050
     EDDAV:  cpu time    2.1714: real time    2.1782
       DOS:  cpu time    0.0005: real time    0.0005
    CHARGE:  cpu time    0.0736: real time    0.0738
    MIXING:  cpu time    0.0022: real time    0.0022
    --------------------------------------------
      LOOP:  cpu time    2.3043: real time    2.3137

 eigenvalue-minimisations  :   808
 total energy-change (2. order) :-0.1045625E-01  (-0.4066352E-03)
 number of electron     582.0000117 magnetization 
 augmentation part       42.6283221 magnetization 

 Broyden mixing:
  rms(total) = 0.16907E-01    rms(broyden)= 0.16903E-01
  rms(prec ) = 0.20983E-01
  weight for this iteration     100.00

 eigenvalues of (default mixing * dielectric matrix)
  average eigenvalue GAMMA=   1.6820
  2.8998  2.8998  2.4173  0.9646  1.0982  1.0982  1.0390  1.0390

 Free energy of the ion-electron system (eV)
  ---------------------------------------------------
  alpha Z        PSCENC =       476.21782361
  Ewald energy   TEWEN  =     -2498.76010831
  -Hartree energ DENC   =    -30551.89122804
  -exchange      EXHF   =         0.00000000
  -V(xc)+E(xc)   XCENC  =      1801.83706688
  PAW double counting   =     91203.50034304   -90710.99533352
  entropy T*S    EENTRO =        -0.00000000
  eigenvalues    EBANDS =     -5560.89284287
  atomic energy  EATOM  =     34968.35250874
  Solvation  Ediel_sol  =         0.00000000
  ---------------------------------------------------
  free energy    TOTEN  =      -872.63177047 eV

  energy without entropy =     -872.63177047  energy(sigma->0) =     -872.63177047


--------------------------------------------------------------------------------------------------------




----------------------------------------- Iteration    1(  14)  ---------------------------------------


    POTLOK:  cpu time    0.0453: real time    0.0454
    SETDIJ:  cpu time    0.0051: real time    0.0052
     EDDAV:  cpu time    2.1509: real time    2.1580
       DOS:  cpu time    0.0002: real time    0.0002
    CHARGE:  cpu time    0.0615: real time    0.0617
    MIXING:  cpu time    0.0018: real time    0.0018
    --------------------------------------------
      LOOP:  cpu time    2.2675: real time    2.2764

 eigenvalue-minimisations  :   800
 total energy-change (2. order) :-0.9151479E-02  (-0.2157694E-03)
 number of electron     582.0000117 magnetization 
 augmentation part       42.6197785 magnetization 

 Broyden mixing:
  rms(total) = 0.54125E-02    rms(broyden)= 0.54063E-02
  rms(prec ) = 0.69662E-02
  weight for this iteration     100.00

 eigenvalues of (default mixing * dielectric matrix)
  average eigenvalue GAMMA=   1.7839
  4.6255  2.6521  2.3916  1.0220  1.0220  1.2577  1.0948  1.0948  0.8946

 Free energy of the ion-electron system (eV)
  ---------------------------------------------------
  alpha Z        PSCENC =       476.21782361
  Ewald energy   TEWEN  =     -2498.76010831
  -Hartree energ DENC   =    -30559.41455539
  -exchange      EXHF   =         0.00000000
  -V(xc)+E(xc)   XCENC  =      1801.93370393
  PAW double counting   =     91450.22607458   -90957.74925538
  entropy T*S    EENTRO =        -0.00000000
  eigenvalues    EBANDS =     -5553.44711375
  atomic energy  EATOM  =     34968.35250874
  Solvation  Ediel_sol  =         0.00000000
  ---------------------------------------------------
  free energy    TOTEN  =      -872.64092195 eV

  energy without entropy =     -872.64092195  energy(sigma->0) =     -872.64092195


--------------------------------------------------------------------------------------------------------




----------------------------------------- Iteration    1(  15)  ---------------------------------------


    POTLOK:  cpu time    0.0485: real time    0.0487
    SETDIJ:  cpu time    0.0049: real time    0.0049
     EDDAV:  cpu time    2.2911: real time    2.2988
       DOS:  cpu time    0.0002: real time    0.0002
    CHARGE:  cpu time    0.0544: real time    0.0545
    MIXING:  cpu time    0.0020: real time    0.0020
    --------------------------------------------
      LOOP:  cpu time    2.4034: real time    2.4169

 eigenvalue-minimisations  :   816
 total energy-change (2. order) :-0.1638220E-02  (-0.3935224E-04)
 number of electron     582.0000117 magnetization 
 augmentation part       42.6187242 magnetization 

 Broyden mixing:
  rms(total) = 0.52712E-02    rms(broyden)= 0.52703E-02
  rms(prec ) = 0.59978E-02
  weight for this iteration     100.00

 eigenvalues of (default mixing * dielectric matrix)
  average eigenvalue GAMMA=   1.6676
  4.6980  2.6761  2.3937  1.0366  1.0366  1.2265  1.1004  1.1004  0.8270  0.5809

 Free energy of the ion-electron system (eV)
  ---------------------------------------------------
  alpha Z        PSCENC =       476.21782361
  Ewald energy   TEWEN  =     -2498.76010831
  -Hartree energ DENC   =    -30561.49985767
  -exchange      EXHF   =         0.00000000
  -V(xc)+E(xc)   XCENC  =      1801.96154412
  PAW double counting   =     91436.60577288   -90944.12588800
  entropy T*S    EENTRO =        -0.00000000
  eigenvalues    EBANDS =     -5551.39435555
  atomic energy  EATOM  =     34968.35250874
  Solvation  Ediel_sol  =         0.00000000
  ---------------------------------------------------
  free energy    TOTEN  =      -872.64256017 eV

  energy without entropy =     -872.64256017  energy(sigma->0) =     -872.64256017


--------------------------------------------------------------------------------------------------------




----------------------------------------- Iteration    1(  16)  ---------------------------------------


    POTLOK:  cpu time    0.0445: real time    0.0446
    SETDIJ:  cpu time    0.0055: real time    0.0055
     EDDAV:  cpu time    2.2513: real time    2.2630
       DOS:  cpu time    0.0004: real time    0.0004
    CHARGE:  cpu time    0.0782: real time    0.0784
    MIXING:  cpu time    0.0022: real time    0.0022
    --------------------------------------------
      LOOP:  cpu time    2.3848: real time    2.3985

 eigenvalue-minimisations  :   816
 total energy-change (2. order) :-0.4119048E-03  (-0.8882187E-05)
 number of electron     582.0000117 magnetization 
 augmentation part       42.6194228 magnetization 

 Broyden mixing:
  rms(total) = 0.36494E-02    rms(broyden)= 0.36491E-02
  rms(prec ) = 0.41506E-02
  weight for this iteration     100.00

 eigenvalues of (default mixing * dielectric matrix)
  average eigenvalue GAMMA=   1.7039
  4.9774  2.6537  2.3830  1.2333  1.2333  1.1373  1.1373  1.0830  0.8902  1.0071
  1.0071

 Free energy of the ion-electron system (eV)
  ---------------------------------------------------
  alpha Z        PSCENC =       476.21782361
  Ewald energy   TEWEN  =     -2498.76010831
  -Hartree energ DENC   =    -30561.60722782
  -exchange      EXHF   =         0.00000000
  -V(xc)+E(xc)   XCENC  =      1801.95375682
  PAW double counting   =     91432.63576988   -90940.15704930
  entropy T*S    EENTRO =        -0.00000000
  eigenvalues    EBANDS =     -5551.27844569
  atomic energy  EATOM  =     34968.35250874
  Solvation  Ediel_sol  =         0.00000000
  ---------------------------------------------------
  free energy    TOTEN  =      -872.64297208 eV

  energy without entropy =     -872.64297208  energy(sigma->0) =     -872.64297208


--------------------------------------------------------------------------------------------------------




----------------------------------------- Iteration    1(  17)  ---------------------------------------


    POTLOK:  cpu time    0.0678: real time    0.0680
    SETDIJ:  cpu time    0.0049: real time    0.0049
     EDDAV:  cpu time    2.1900: real time    2.2023
       DOS:  cpu time    0.0004: real time    0.0004
    CHARGE:  cpu time    0.0618: real time    0.0621
    MIXING:  cpu time    0.0023: real time    0.0023
    --------------------------------------------
      LOOP:  cpu time    2.3301: real time    2.3448

 eigenvalue-minimisations  :   800
 total energy-change (2. order) :-0.3716979E-03  (-0.9206943E-05)
 number of electron     582.0000117 magnetization 
 augmentation part       42.6208675 magnetization 

 Broyden mixing:
  rms(total) = 0.16146E-02    rms(broyden)= 0.16135E-02
  rms(prec ) = 0.20249E-02
  weight for this iteration     100.00

[...]
   0.911E+02 -.537E+02 0.220E+03   -.953E+02 0.563E+02 -.239E+03   0.416E+01 -.264E+01 0.189E+02   -.128E-03 -.323E-04 0.770E-04
   0.115E+03 -.635E+02 0.199E+03   -.122E+03 0.664E+02 -.217E+03   0.642E+01 -.289E+01 0.179E+02   -.389E-04 -.140E-03 -.101E-03
   0.126E+03 -.213E+03 -.451E+01   -.135E+03 0.230E+03 0.452E+01   0.959E+01 -.168E+02 -.917E-02   -.128E-04 0.140E-03 0.967E-04
   -.968E+02 0.508E+02 -.169E+03   0.114E+03 -.593E+02 0.179E+03   -.173E+02 0.852E+01 -.996E+01   0.290E-04 -.116E-03 -.315E-04
   0.952E+02 -.203E+03 -.669E+01   -.103E+03 0.218E+03 0.832E+01   0.826E+01 -.150E+02 -.163E+01   0.154E-03 0.486E-05 0.121E-03
   -.245E+03 0.105E+02 0.257E+01   0.266E+03 -.110E+02 -.272E+01   -.214E+02 0.441E+00 0.150E+00   -.466E-04 -.130E-03 -.789E-04
   0.239E+03 -.367E+01 -.511E+01   -.260E+03 0.289E+01 0.561E+01   0.207E+02 0.780E+00 -.504E+00   -.327E-03 0.135E-03 0.106E-03
   -.105E+03 -.204E+03 0.987E+01   0.115E+03 0.222E+03 -.113E+02   -.963E+01 -.182E+02 0.146E+01   0.138E-03 -.225E-04 -.208E-04
   -.442E+01 -.875E+02 -.156E+03   0.486E+01 0.102E+03 0.169E+03   -.438E+00 -.143E+02 -.130E+02   0.202E-03 0.449E-04 -.664E-04
   -.637E+02 0.383E+02 -.150E+03   0.762E+02 -.453E+02 0.161E+03   -.125E+02 0.696E+01 -.113E+02   0.255E-03 0.164E-03 0.192E-03
   -.277E+01 -.121E+03 -.193E+03   0.316E+01 0.127E+03 0.211E+03   -.390E+00 -.628E+01 -.179E+02   0.566E-04 0.203E-03 -.133E-03
   0.683E+01 -.924E+02 -.153E+03   -.730E+01 0.109E+03 0.164E+03   0.463E+00 -.165E+02 -.108E+02   -.483E-04 -.289E-04 -.183E-04
   0.201E+01 -.626E+02 -.131E+03   -.234E+01 0.756E+02 0.138E+03   0.324E+00 -.129E+02 -.672E+01   0.218E-03 0.908E-04 0.252E-03
   0.670E+02 0.425E+02 -.142E+03   -.799E+02 -.501E+02 0.154E+03   0.130E+02 0.760E+01 -.113E+02   0.423E-04 -.227E-04 -.665E-04
   0.118E+03 -.202E+03 0.307E+01   -.127E+03 0.218E+03 -.279E+01   0.924E+01 -.159E+02 -.282E+00   0.214E-03 0.221E-03 0.179E-04
   0.768E+02 -.416E+02 0.153E+03   -.899E+02 0.491E+02 -.164E+03   0.131E+02 -.747E+01 0.110E+02   0.134E-03 0.558E-04 0.835E-04
   -.713E+02 -.399E+02 0.162E+03   0.840E+02 0.472E+02 -.175E+03   -.127E+02 -.729E+01 0.132E+02   -.109E-03 -.260E-04 -.178E-03
   -.114E+02 -.576E+02 0.293E+02   0.159E+02 0.685E+02 -.125E+02   -.454E+01 -.108E+02 -.168E+02   0.164E-03 0.182E-03 -.409E-04
   0.563E+02 0.340E+02 -.130E+03   -.671E+02 -.410E+02 0.139E+03   0.108E+02 0.703E+01 -.892E+01   -.163E-03 0.208E-04 0.586E-04
   -.294E+01 0.903E+02 0.168E+03   0.307E+01 -.105E+03 -.182E+03   -.123E+00 0.147E+02 0.135E+02   0.118E-03 0.523E-04 0.215E-03
   -.460E+02 -.366E+02 0.130E+03   0.586E+02 0.440E+02 -.142E+03   -.126E+02 -.731E+01 0.119E+02   -.783E-04 0.882E-04 0.207E-03
   -.652E+02 -.316E+02 0.137E+03   0.776E+02 0.386E+02 -.144E+03   -.125E+02 -.699E+01 0.780E+01   -.181E-03 -.140E-03 0.246E-03
   -.862E+02 -.206E+03 -.600E+02   0.848E+02 0.222E+03 0.643E+02   0.133E+01 -.158E+02 -.434E+01   0.104E-03 0.430E-03 0.322E-03
   0.700E+02 -.371E+02 0.148E+03   -.825E+02 0.442E+02 -.158E+03   0.125E+02 -.708E+01 0.105E+02   0.664E-04 0.477E-04 0.220E-03
   -.105E+03 0.203E+03 -.492E+01   0.113E+03 -.222E+03 0.656E+01   -.806E+01 0.188E+02 -.164E+01   -.166E-03 -.248E-04 -.103E-03
   0.127E+03 0.193E+03 0.112E+02   -.138E+03 -.210E+03 -.122E+02   0.111E+02 0.169E+02 0.105E+01   0.134E-03 0.178E-03 0.179E-03
   0.152E+01 0.876E+02 0.156E+03   -.173E+01 -.103E+03 -.168E+03   0.215E+00 0.152E+02 0.118E+02   0.938E-04 0.930E-04 0.108E-03
   0.226E+03 -.427E+01 0.438E+01   -.247E+03 0.428E+01 -.393E+01   0.211E+02 -.863E-02 -.448E+00   0.403E-05 -.493E-04 -.628E-04
   0.310E+01 -.665E+02 -.456E+02   -.276E+01 0.660E+02 0.449E+02   -.331E+00 0.547E+00 0.716E+00   -.318E-04 -.384E-04 0.327E-04
   0.948E+01 0.692E+02 0.495E+02   -.956E+01 -.686E+02 -.491E+02   0.769E-01 -.639E+00 -.466E+00   0.396E-04 0.460E-04 0.949E-05
   -.497E+02 -.359E+02 0.490E+02   0.500E+02 0.356E+02 -.483E+02   -.240E+00 0.250E+00 -.603E+00   0.687E-04 0.956E-04 -.524E-04
   0.536E+02 0.410E+02 -.454E+02   -.532E+02 -.406E+02 0.448E+02   -.408E+00 -.388E+00 0.586E+00   0.226E-05 -.840E-05 -.858E-04
   0.233E+01 0.805E+02 0.259E+02   -.395E+01 -.807E+02 -.254E+02   0.161E+01 0.145E+00 -.485E+00   0.874E-04 -.178E-03 0.145E-04
   -.632E+02 0.334E+02 -.472E+02   0.631E+02 -.322E+02 0.487E+02   0.121E+00 -.116E+01 -.152E+01   0.128E-03 0.431E-04 0.142E-03
   -.641E+02 0.268E+02 -.394E+02   0.635E+02 -.269E+02 0.391E+02   0.621E+00 0.967E-01 0.299E+00   0.202E-03 0.347E-04 0.932E-05
   -.466E+01 -.676E+02 -.455E+02   0.467E+01 0.676E+02 0.452E+02   -.114E-01 0.452E-01 0.302E+00   0.121E-03 0.605E-04 0.101E-03
   -.579E+02 0.381E+02 -.420E+02   0.576E+02 -.377E+02 0.412E+02   0.309E+00 -.382E+00 0.767E+00   0.450E-04 -.104E-03 -.749E-05
   0.135E+01 -.664E+02 -.368E+02   -.135E+01 0.658E+02 0.366E+02   0.602E-02 0.566E+00 0.144E+00   -.559E-04 0.607E-04 -.143E-04
   0.664E+02 0.306E+02 -.522E+02   -.660E+02 -.307E+02 0.518E+02   -.399E+00 0.754E-01 0.398E+00   0.834E-04 0.365E-04 0.228E-03
   -.556E+02 0.246E+02 -.451E+02   0.559E+02 -.250E+02 0.455E+02   -.320E+00 0.371E+00 -.383E+00   0.734E-04 -.277E-04 0.111E-03
   -.913E+01 -.635E+02 -.421E+02   0.864E+01 0.632E+02 0.417E+02   0.495E+00 0.274E+00 0.425E+00   0.123E-03 0.146E-03 -.120E-04
   -.544E+02 0.455E+02 -.415E+02   0.534E+02 -.451E+02 0.410E+02   0.972E+00 -.401E+00 0.448E+00   -.446E-04 -.203E-03 -.372E-04
   0.691E+02 -.367E+02 0.387E+02   -.678E+02 0.366E+02 -.379E+02   -.134E+01 0.102E+00 -.761E+00   -.736E-04 0.158E-03 0.967E-04
   0.124E+02 -.808E+02 -.417E+02   -.128E+02 0.795E+02 0.416E+02   0.391E+00 0.122E+01 0.597E-01   -.150E-03 0.154E-03 -.439E-04
   0.632E+02 0.384E+02 -.456E+02   -.627E+02 -.377E+02 0.454E+02   -.461E+00 -.684E+00 0.236E+00   0.107E-03 0.137E-03 0.179E-03
   -.125E+02 0.921E+02 0.151E+02   0.116E+02 -.937E+02 -.141E+02   0.921E+00 0.153E+01 -.103E+01   0.124E-03 -.233E-03 0.916E-04
   -.619E+02 -.271E+02 0.475E+02   0.613E+02 0.271E+02 -.471E+02   0.613E+00 -.813E-03 -.365E+00   0.121E-03 0.550E-04 -.110E-04
   0.585E+02 0.226E+02 -.458E+02   -.581E+02 -.229E+02 0.450E+02   -.318E+00 0.259E+00 0.817E+00   0.689E-05 0.482E-05 -.701E-04
   -.178E+02 -.648E+02 -.598E+02   0.155E+02 0.674E+02 0.613E+02   0.232E+01 -.267E+01 -.155E+01   -.201E-04 0.187E-03 0.166E-03
   0.521E+02 0.475E+02 -.550E+02   -.499E+02 -.470E+02 0.537E+02   -.217E+01 -.558E+00 0.130E+01   -.162E-04 -.161E-03 0.863E-04
   0.639E+02 -.411E+02 0.369E+02   -.643E+02 0.416E+02 -.365E+02   0.368E+00 -.458E+00 -.360E+00   -.142E-03 0.259E-03 0.227E-05
   -.513E+02 -.410E+02 0.467E+02   0.514E+02 0.405E+02 -.465E+02   -.135E+00 0.497E+00 -.261E+00   0.101E-03 -.468E-05 -.329E-04
   0.544E+02 -.245E+02 0.536E+02   -.540E+02 0.249E+02 -.523E+02   -.412E+00 -.330E+00 -.129E+01   0.630E-05 -.172E-04 0.526E-04
   -.584E+02 0.334E+02 -.463E+02   0.593E+02 -.336E+02 0.425E+02   -.940E+00 0.135E+00 0.381E+01   -.889E-05 0.522E-04 -.127E-03
   0.632E+02 -.273E+02 0.470E+02   -.628E+02 0.270E+02 -.463E+02   -.437E+00 0.267E+00 -.717E+00   0.341E-04 -.367E-05 0.308E-05
   -.790E+01 0.665E+02 0.495E+02   0.713E+01 -.666E+02 -.492E+02   0.768E+00 0.517E-01 -.241E+00   -.856E-04 0.976E-05 -.138E-03
   0.505E+01 0.671E+02 0.476E+02   -.477E+01 -.668E+02 -.469E+02   -.276E+00 -.214E+00 -.652E+00   -.419E-04 0.300E-05 0.686E-04
   -.626E+02 -.281E+02 0.463E+02   0.621E+02 0.276E+02 -.460E+02   0.517E+00 0.482E+00 -.313E+00   0.472E-04 0.507E-04 -.153E-04
   0.538E+02 -.331E+02 0.500E+02   -.532E+02 0.329E+02 -.500E+02   -.524E+00 0.241E+00 -.403E-02   -.890E-04 -.365E-04 -.729E-05
   0.570E+02 -.388E+02 0.431E+02   -.569E+02 0.381E+02 -.430E+02   -.139E+00 0.660E+00 -.836E-01   -.716E-04 -.703E-04 -.169E-03
   -.764E+02 -.418E+02 0.223E+02   0.782E+02 0.392E+02 -.231E+02   -.182E+01 0.266E+01 0.873E+00   0.247E-03 -.290E-04 0.115E-03
   -.646E+01 0.694E+02 0.502E+02   0.613E+01 -.690E+02 -.495E+02   0.328E+00 -.409E+00 -.620E+00   -.856E-04 -.101E-03 0.330E-04
   0.703E+02 0.292E+02 -.463E+02   -.693E+02 -.294E+02 0.457E+02   -.103E+01 0.204E+00 0.508E+00   -.138E-03 -.235E-05 0.767E-04
 -----------------------------------------------------------------------------------------------
   0.100E+02 -.224E+01 0.210E+02   0.526E-12 -.320E-12 -.270E-12   -.101E+02 0.223E+01 -.211E+02   0.383E-02 0.257E-02 0.388E-02
 
 
 POSITION                                       TOTAL-FORCE (eV/Angst)
 -----------------------------------------------------------------------------------
      3.21909      8.03095      8.44758        -0.029133     -0.016613      0.009757
      1.23930      7.19812      6.59136         0.009752     -0.013307      0.018719
      1.17925      8.28953      6.56212         0.008685     -0.000083      0.007838
      1.91114      6.82324      5.80869         0.016499     -0.017415      0.009911
      0.24085      6.76129      6.49554         0.001892     -0.001484      0.012392
     -2.08988      3.97860     12.49807         0.014815      0.000255     -0.000962
     -0.02630      4.92796      8.13307        -0.001813      0.014650      0.009682
      6.88406      1.13804      3.02269         0.000300      0.008115      0.013258
      6.81233      9.05365     12.92933        -0.000724      0.008463      0.013653
      2.31978      6.54946     12.17021        -0.005391      0.002846     -0.011679
     -4.35241     10.46729      1.94989        -0.008153      0.004772     -0.012784
     -2.51813      6.50963     11.94557         0.007609      0.003296     -0.012871
      4.25158      2.46470      6.85347         0.008555      0.004927     -0.014409
      4.44451     10.47270      2.09561         0.006430      0.004582     -0.013673
     -2.34577      9.29652      8.00005         0.008525     -0.005402      0.011911
     11.72326      1.17743      1.93665        -0.002953      0.000917     -0.011615
      2.42249      1.43101     12.91143        -0.005869     -0.004548      0.014314
      9.03471      5.23147      6.77960         0.003408      0.001594     -0.011180
      0.04470     10.35516      8.13029        -0.000545     -0.001348      0.007566
     11.35531      3.75614      2.50816        -0.006479     -0.012937     -0.000746
      8.86031      0.18353      7.59710        -0.015666     -0.001341     -0.001152
     -4.38101      7.78101      7.40306         0.008790     -0.011763      0.002955
      2.45458      3.74777      2.45529         0.006992     -0.011340      0.001277
      8.98213      7.91094      2.44071        -0.014087      0.001874     -0.000993
      2.46862      4.28803      7.47912         0.003756      0.016104     -0.002412
      9.30964      0.20741      2.57980         0.007222      0.012454     -0.000040
      2.32582     11.68728     12.57072         0.008074     -0.011247     -0.000467
     11.33435      4.09027      7.48244        -0.004580      0.014944      0.001710
      9.22625      2.64087      6.90609        -0.007238      0.004273     -0.012948
      4.48896      0.23852      2.43817        -0.007775      0.013259      0.000439
      9.38517      5.38430      3.03783        -0.007520     -0.001275      0.015453
      1.96757      3.94248     12.35090        -0.013960      0.000461     -0.000197
     -0.05543     10.76090     11.98240        -0.002123     -0.007070     -0.013716
     -3.57539      7.88623      9.92045         0.015567     -0.000877     -0.000480
      8.60488      0.85062      5.03695        -0.007635      0.012537      0.001127
      8.62187      8.80050     14.88024        -0.007358      0.012902      0.001011
      1.72677     11.15911     10.05533        -0.006928     -0.015368     -0.002328
      8.66210      7.12406      4.93170        -0.007620     -0.011209      0.000040
      1.76554      3.11899     14.87048        -0.007927     -0.011680     -0.000237
      3.23218      4.06512      4.96198         0.012701      0.004618      0.002649
      6.93902      6.78360      6.94440        -0.001119     -0.010017     -0.013875
      3.32360     11.87934      0.10906         0.014078      0.000784      0.000808
      2.54908      9.55582      8.06935        -0.010731     -0.011663      0.007288
      3.49188      7.71588     10.10123        -0.018186      0.001258     -0.005495
      3.58006      0.01338     14.86166        -0.014872     -0.000637     -0.001105
     -1.94901      4.78044      9.99088         0.007290      0.014267     -0.002111
      5.07298      0.75776      4.96089         0.008262      0.012350      0.000579
      1.91570      5.09280      9.96646        -0.008935      0.013272     -0.005074
      5.11013      8.85998      0.08108         0.006994      0.011973      0.000355
      4.45369      5.36154      2.95600         0.005895     -0.003514      0.014816
     11.20282      1.42795     12.98053         0.007014     -0.003498      0.013355
     -1.78858     11.03371      9.94840         0.007134     -0.013082     -0.001260
      4.95913      5.02136      6.76102        -0.004922      0.001921     -0.012295
      5.17797      6.96203      4.95299         0.003328     -0.011933      0.002621
     10.54132      3.96098      4.98425        -0.014416     -0.001354     -0.000263
     -2.06779     11.86084      7.46348         0.014961     -0.000906      0.000369
     -2.47026     11.69253     12.38311        -0.005546     -0.013428     -0.000813
      6.91404      9.52537      1.92312        -0.000738     -0.003089     -0.010985
     -2.09690      9.11104     11.77659        -0.001632      0.001846     -0.010585
      0.03555      2.85659      1.99714        -0.001026     -0.007516     -0.012558
      6.77523      1.66298      6.80474        -0.000465     -0.002256     -0.011609
     -0.06896      5.54181     11.69777        -0.001014     -0.002263     -0.010525
      2.06495      1.18411      1.81560         0.001399      0.002316     -0.011069
     11.94800      3.06748      0.05356         0.007683     -0.011946      0.000253
     -4.87197     10.72590     13.05318         0.002537     -0.000323      0.011846
      4.77582     10.72249     13.08459        -0.002072     -0.002178      0.011217
      1.78988      6.83770      7.92026         0.003757     -0.001893      0.010401
      2.02239      9.14813     11.82454         0.001882      0.000551     -0.007442
      6.92616      6.31250      3.04861         0.000606      0.003789      0.012583
     -2.02388      6.68037      8.10537         0.002629     -0.001523      0.007429
      4.81929      2.76954      3.23509        -0.001022     -0.001602      0.012596
      4.47745      7.57233      7.40326        -0.013368     -0.012195     -0.001538
      8.94816      2.77817      3.20051         0.001462     -0.001368      0.010310
      4.37408      8.12765     12.56930        -0.005961      0.013137     -0.000175
     -4.51676      8.16085     12.38142         0.008720      0.011886     -0.000583
     -0.04709      2.34781     13.05930         0.001219      0.002482      0.011733
      4.85725      7.91929      2.52389         0.014300      0.000949      0.000782
      1.51818     10.67412     11.59275         0.004697     -0.028266     -0.018996
      8.37787      9.18588     13.31669         0.005060      0.028585      0.021849
     10.04474      3.96153      3.43376        -0.021383     -0.018326      0.022008
      3.76704     11.88245      1.67275         0.020896      0.017896     -0.022542
     -1.61734      5.13349      8.44354         0.003510      0.035408      0.009606
      1.53046      5.28428     11.55642        -0.027529      0.009459     -0.020533
     -5.26262      9.18091      1.56734        -0.026323      0.011120     -0.019786
     -1.59764     10.64187     11.51550        -0.003349     -0.028649     -0.019505
      3.15980      0.00648      1.54074        -0.024204      0.016743     -0.018928
      1.58727      2.72022      1.55117         0.003562     -0.027521     -0.018706
     -1.65193      5.20357     11.53834         0.029139      0.011419     -0.018801
      8.35624      1.32261      6.57892        -0.025234      0.009176     -0.021055
     -1.53187      2.70639      1.61762        -0.004466     -0.025260     -0.019461
     10.02813      3.98111      6.52589        -0.021911      0.018054     -0.020699
     -1.53100     10.64248      8.39275         0.029896     -0.014670      0.016805
      8.48810      6.73333      6.50287         0.005285     -0.030305     -0.020759
     -3.17679      7.92492     11.50118         0.022912      0.016910     -0.019051
      1.53636      5.21508      8.40912         0.001191      0.032646      0.012983
      8.47948      6.68353      3.37444        -0.026154     -0.010795      0.022931
      5.33956      9.19584      1.65042         0.025762      0.008476     -0.020498
      5.37735      6.60103      6.53294        -0.011241     -0.026646     -0.026129
      3.74953      3.96618      6.51034         0.014906      0.023730     -0.022261
     -3.08603      7.90762      8.36856         0.026745     -0.018295      0.016075
      3.09293      0.01184     13.30920        -0.024258     -0.018096      0.022020
      5.36235      6.63807      3.37972         0.023103     -0.009477      0.022061
      3.06617      7.90344     11.62976        -0.024332      0.019661     -0.017565
     12.12303      2.69843     13.37304         0.027187     -0.011296      0.020476
      5.26232      9.19495     13.38912        -0.004017      0.027904      0.020353
      8.44077      1.24962      3.46650         0.003361      0.029316      0.019196
      1.52131      2.71290     13.31015        -0.027297     -0.009952      0.021072
      3.74383      3.97813      3.40919         0.019224     -0.012578      0.023615
     10.55971      0.00206     13.41217         0.021131     -0.016521      0.019167
      1.59801     10.76652      8.47521        -0.032322     -0.017479      0.013429
      5.31446      1.22888      3.41918        -0.004720      0.029726      0.020999
      5.23504      1.21432      6.51832         0.027953      0.011771     -0.020124
 -----------------------------------------------------------------------------------
    total drift:                               -0.009125     -0.001215     -0.027027


--------------------------------------------------------------------------------------------------------



  FREE ENERGIE OF THE ION-ELECTRON SYSTEM (eV)
  ---------------------------------------------------
  free  energy   TOTEN  =      -882.71734940 eV

  energy  without entropy=     -882.71734940  energy(sigma->0) =     -882.71734940
 


--------------------------------------------------------------------------------------------------------


    POTLOK:  cpu time    0.0573: real time    0.0575


--------------------------------------------------------------------------------------------------------


     LOOP+:  cpu time   53.6034: real time   53.9622
    4ORBIT:  cpu time    0.0000: real time    0.0000

 total amount of memory used by VASP on root node    53522. kBytes
========================================================================

   base      :      30000. kBytes
   nonlr-proj:       5696. kBytes
   fftplans  :       4343. kBytes
   grid      :       8131. kBytes
   one-center:         58. kBytes
   wavefun   :       5294. kBytes
 
  
  
 General timing and accounting informations for this job:
 ========================================================
  
                  Total CPU time used (sec):       56.661
                            User time (sec):       54.111
                          System time (sec):        2.551
                         Elapsed time (sec):       57.894
  
                   Maximum memory used (kb):      231828.
                   Average memory used (kb):           0.
  
                          Minor page faults:        77471
                          Major page faults:           12
                 Voluntary context switches:         3794
