<?xml version="1.0" encoding="ISO-8859-1"?>
<modeling>
 <generator>
  <i name="program" type="string">vasp </i>
  <i name="version" type="string">5.4.1  </i>
  <i name="subversion" type="string">05Feb16 (build Feb 08 2018 09:21:51) complex                          parallel </i>
  <i name="platform" type="string">LinuxIFC </i>
  <i name="date" type="string">2019 11 13 </i>
  <i name="time" type="string">15:47:47 </i>
 </generator>
 <incar>
  <i type="string" name="PREC">normal</i>
  <i type="int" name="IBRION">    -1</i>
  <i name="EDIFF">      0.00000100</i>
  <i name="ENCUT">    400.00000000</i>
  <i type="string" name="LREAL"> A</i>
  <i type="int" name="ISMEAR">     0</i>
  <i name="SIGMA">      0.01000000</i>
  <i type="logical" name="LWAVE"> F  </i>
  <i type="logical" name="LCHARG"> F  </i>
  <v type="int" name="KPOINT_BSE">    -1     0     0     0</v>
 </incar>
 <kpoints>
  <generation param="Monkhorst-Pack">
   <v type="int" name="divisions">       1        1        1 </v>
   <v name="usershift">      0.00000000       0.00000000       0.00000000 </v>
   <v name="genvec1">      1.00000000      -0.00000000      -0.00000000 </v>
   <v name="genvec2">      0.00000000       1.00000000      -0.00000000 </v>
   <v name="genvec3">      0.00000000       0.00000000       1.00000000 </v>
   <v name="shift">      0.00000000       0.00000000       0.00000000 </v>
  </generation>
  <varray name="kpointlist" >
   <v>       0.00000000       0.00000000       0.00000000 </v>
  </varray>
  <varray name="weights" >
   <v>       1.00000000 </v>
  </varray>
 </kpoints>
 <parameters>
  <separator name="general" >
   <i type="string" name="SYSTEM">unknown system</i>
   <i type="logical" name="LCOMPAT"> F  </i>
  </separator>
  <separator name="electronic" >
   <i type="string" name="PREC">normal</i>
   <i name="ENMAX">    400.00000000</i>
   <i name="ENAUG">    644.87300000</i>
   <i name="EDIFF">      0.00000100</i>
   <i type="int" name="IALGO">    38</i>
   <i type="int" name="IWAVPR">    10</i>
   <i type="int" name="NBANDS">   352</i>
   <i name="NELECT">    582.00000000</i>
   <i type="int" name="TURBO">     0</i>
   <i type="int" name="IRESTART">     0</i>
   <i type="int" name="NREBOOT">     0</i>
   <i type="int" name="NMIN">     0</i>
   <i name="EREF">      0.00000000</i>
   <separator name="electronic smearing" >
    <i type="int" name="ISMEAR">     0</i>
    <i name="SIGMA">      0.01000000</i>
    <i name="KSPACING">      0.50000000</i>
    <i type="logical" name="KGAMMA"> T  </i>
   </separator>
   <separator name="electronic projectors" >
    <i type="logical" name="LREAL"> T  </i>
    <v name="ROPT">     -0.00050000     -0.00050000     -0.00050000     -0.00050000     -0.00050000</v>
    <i type="int" name="LMAXPAW">  -100</i>
    <i type="int" name="LMAXMIX">     2</i>
    <i type="logical" name="NLSPLINE"> F  </i>
   </separator>
   <separator name="electronic startup" >
    <i type="int" name="ISTART">     0</i>
    <i type="int" name="ICHARG">     2</i>
    <i type="int" name="INIWAV">     1</i>
   </separator>
   <separator name="electronic spin" >
    <i type="int" name="ISPIN">     1</i>
    <i type="logical" name="LNONCOLLINEAR"> F  </i>
    <v name="MAGMOM">      1.00000000      1.00000000      1.00000000      1.00000000      1.00000000      1.00000000      1.00000000      1.00000000      1.00000000      1.00000000      1.00000000      1.00000000      1.00000000      1.00000000      1.00000000      1.00000000      1.00000000      1.00000000      1.00000000      1.00000000
      1.00000000      1.00000000      1.00000000      1.00000000      1.00000000      1.00000000      1.00000000      1.00000000      1.00000000      1.00000000      1.00000000      1.00000000      1.00000000      1.00000000      1.00000000      1.00000000      1.00000000      1.00000000      1.00000000      1.00000000
      1.00000000      1.00000000      1.00000000      1.00000000      1.00000000      1.00000000      1.00000000      1.00000000      1.00000000      1.00000000      1.00000000      1.00000000      1.00000000      1.00000000      1.00000000      1.00000000      1.00000000      1.00000000      1.00000000      1.00000000
      1.00000000      1.00000000      1.00000000      1.00000000      1.00000000      1.00000000      1.00000000      1.00000000      1.00000000      1.00000000      1.00000000      1.00000000      1.00000000      1.00000000      1.00000000      1.00000000      1.00000000      1.00000000      1.00000000      1.00000000
      1.00000000      1.00000000      1.00000000      1.00000000      1.00000000      1.00000000      1.00000000      1.00000000      1.00000000      1.00000000      1.00000000      1.00000000      1.00000000      1.00000000      1.00000000      1.00000000      1.00000000      1.00000000      1.00000000      1.00000000
      1.00000000      1.00000000      1.00000000      1.00000000      1.00000000      1.00000000      1.00000000      1.00000000      1.00000000      1.00000000      1.00000000      1.00000000</v>
    <i name="NUPDOWN">     -1.00000000</i>
    <i type="logical" name="LSORBIT"> F  </i>
    <v name="SAXIS">      0.00000000      0.00000000      1.00000000</v>
    <i type="logical" name="LSPIRAL"> F  </i>
    <v name="QSPIRAL">      0.00000000      0.00000000      0.00000000</v>
    <i type="logical" name="LZEROZ"> F  </i>
   </separator>
   <separator name="electronic exchange-correlation" >
    <i type="logical" name="LASPH"> F  </i>
    <i type="logical" name="LMETAGGA"> F  </i>
   </separator>
   <separator name="electronic convergence" >
    <i type="int" name="NELM">    60</i>
    <i type="int" name="NELMDL">    -5</i>
    <i type="int" name="NELMIN">     2</i>
    <i name="ENINI">    400.00000000</i>
    <separator name="electronic convergence detail" >
     <i type="logical" name="LDIAG"> T  </i>
     <i type="logical" name="LSUBROT"> F  </i>
     <i name="WEIMIN">      0.00000000</i>
     <i name="EBREAK">      0.00000000</i>
     <i name="DEPER">      0.30000000</i>
     <i type="int" name="NRMM">     4</i>
     <i name="TIME">      0.40000000</i>
    </separator>
   </separator>
   <separator name="electronic mixer" >
    <i name="AMIX">      0.40000000</i>
    <i name="BMIX">      1.00000000</i>
    <i name="AMIN">      0.10000000</i>
    <i name="AMIX_MAG">      1.60000000</i>
    <i name="BMIX_MAG">      1.00000000</i>
    <separator name="electronic mixer details" >
     <i type="int" name="IMIX">     4</i>
     <i type="logical" name="MIXFIRST"> F  </i>
     <i type="int" name="MAXMIX">   -45</i>
     <i name="WC">    100.00000000</i>
     <i type="int" name="INIMIX">     1</i>
     <i type="int" name="MIXPRE">     1</i>
     <i type="int" name="MREMOVE">     5</i>
    </separator>
   </separator>
   <separator name="electronic dipolcorrection" >
    <i type="logical" name="LDIPOL"> F  </i>
    <i type="logical" name="LMONO"> F  </i>
    <i type="int" name="IDIPOL">     0</i>
    <i name="EPSILON">      1.00000000</i>
    <v name="DIPOL">   -100.00000000   -100.00000000   -100.00000000</v>
    <i name="EFIELD">      0.00000000</i>
   </separator>
  </separator>
  <separator name="grids" >
   <i type="int" name="NGX">    70</i>
   <i type="int" name="NGY">    70</i>
   <i type="int" name="NGZ">    80</i>
   <i type="int" name="NGXF">   140</i>
   <i type="int" name="NGYF">   140</i>
   <i type="int" name="NGZF">   160</i>
   <i type="logical" name="ADDGRID"> F  </i>
  </separator>
  <separator name="ionic" >
   <i type="int" name="NSW">     0</i>
   <i type="int" name="IBRION">    -1</i>
   <i type="int" name="ISIF">     2</i>
   <i name="PSTRESS">      0.00000000</i>
   <i name="EDIFFG">      0.00001000</i>
   <i type="int" name="NFREE">     0</i>
   <i name="POTIM">      0.50000000</i>
   <i name="SMASS">     -3.00000000</i>
   <i name="SCALEE">      1.00000000</i>
  </separator>
  <separator name="ionic md" >
   <i name="TEBEG">      0.00010000</i>
   <i name="TEEND">      0.00010000</i>
   <i type="int" name="NBLOCK">     1</i>
   <i type="int" name="KBLOCK">     1</i>
   <i type="int" name="NPACO">   256</i>
   <i name="APACO">     16.00000000</i>
  </separator>
  <separator name="symmetry" >
   <i type="int" name="ISYM">     2</i>
   <i name="SYMPREC">      0.00001000</i>
  </separator>
  <separator name="dos" >
   <i type="logical" name="LORBIT"> F  </i>
   <v name="RWIGS">     -1.00000000     -1.00000000     -1.00000000     -1.00000000     -1.00000000</v>
   <i type="int" name="NEDOS">   301</i>
   <i name="EMIN">     10.00000000</i>
   <i name="EMAX">    -10.00000000</i>
   <i name="EFERMI">      0.00000000</i>
  </separator>
  <separator name="writing" >
   <i type="int" name="NWRITE">     2</i>
   <i type="logical" name="LWAVE"> F  </i>
   <i type="logical" name="LCHARG"> F  </i>
   <i type="logical" name="LPARD"> F  </i>
   <i type="logical" name="LVTOT"> F  </i>
   <i type="logical" name="LVHAR"> F  </i>
   <i type="logical" name="LELF"> F  </i>
   <i type="logical" name="LOPTICS"> F  </i>
   <v name="STM">      0.00000000      0.00000000      0.00000000      0.00000000      0.00000000      0.00000000      0.00000000</v>
  </separator>
  <separator name="performance" >
   <i type="int" name="NPAR">     8</i>
   <i type="int" name="NSIM">     4</i>
   <i type="int" name="NBLK">    -1</i>
   <i type="logical" name="LPLANE"> T  </i>
   <i type="logical" name="LSCALAPACK"> F  </i>
   <i type="logical" name="LSCAAWARE"> F  </i>
   <i type="logical" name="LSCALU"> F  </i>
   <i type="logical" name="LASYNC"> F  </i>
   <i type="logical" name="LORBITALREAL"> F  </i>
  </separator>
  <separator name="miscellaneous" >
   <i type="int" name="IDIOT">     3</i>
   <i type="logical" name="LMUSIC"> F  </i>
   <v name="POMASS">     26.98100000     12.01100000      1.00000000     16.00000000     28.08500000</v>
   <v name="DARWINR">      0.00000000      0.00000000      0.00000000      0.00000000      0.00000000</v>
   <v name="DARWINV">      1.00000000      1.00000000      1.00000000      1.00000000      1.00000000</v>
   <i type="logical" name="LCORR"> T  </i>
  </separator>
  <i type="logical" name="GGA_COMPAT"> T  </i>
  <i type="logical" name="LBERRY"> F  </i>
  <i type="int" name="ICORELEVEL">     0</i>
  <i type="logical" name="LDAU"> F  </i>
  <i type="int" name="I_CONSTRAINED_M">     0</i>
  <separator name="electronic exchange-correlation" >
   <i type="string" name="GGA">--</i>
   <i type="int" name="VOSKOWN">     0</i>
   <i type="logical" name="LHFCALC"> F  </i>
   <i type="string" name="PRECFOCK"></i>
   <i type="logical" name="LSYMGRAD"> F  </i>
   <i type="logical" name="LHFONE"> F  </i>
   <i type="logical" name="LRHFCALC"> F  </i>
   <i type="logical" name="LTHOMAS"> F  </i>
   <i type="logical" name="LMODELHF"> F  </i>
   <i name="ENCUT4O">     -1.00000000</i>
   <i type="int" name="EXXOEP">     0</i>
   <i type="int" name="FOURORBIT">     0</i>
   <i name="AEXX">      0.00000000</i>
   <i name="HFALPHA">      0.00000000</i>
   <i name="MCALPHA">      0.00000000</i>
   <i name="ALDAX">      1.00000000</i>
   <i name="AGGAX">      1.00000000</i>
   <i name="ALDAC">      1.00000000</i>
   <i name="AGGAC">      1.00000000</i>
   <i type="int" name="NKREDX">     1</i>
   <i type="int" name="NKREDY">     1</i>
   <i type="int" name="NKREDZ">     1</i>
   <i type="logical" name="SHIFTRED"> F  </i>
   <i type="logical" name="ODDONLY"> F  </i>
   <i type="logical" name="EVENONLY"> F  </i>
   <i type="int" name="LMAXFOCK">     0</i>
   <i type="int" name="NMAXFOCKAE">     0</i>
   <i type="logical" name="LFOCKAEDFT"> F  </i>
   <i name="HFSCREEN">      0.00000000</i>
   <i name="HFSCREENC">      0.00000000</i>
   <i type="int" name="NBANDSGWLOW">     0</i>
  </separator>
  <separator name="vdW DFT" >
   <i type="logical" name="LUSE_VDW"> F  </i>
   <i name="Zab_VDW">     -0.84910000</i>
   <i name="PARAM1">      0.12340000</i>
   <i name="PARAM2">      1.00000000</i>
   <i name="PARAM3">      0.00000000</i>
  </separator>
  <separator name="model GW" >
   <i type="int" name="MODEL_GW">     0</i>
   <i name="MODEL_EPS0">     13.02047137</i>
   <i name="MODEL_ALPHA">      1.00000000</i>
  </separator>
  <separator name="linear response parameters" >
   <i type="logical" name="LEPSILON"> F  </i>
   <i type="logical" name="LRPA"> F  </i>
   <i type="logical" name="LNABLA"> F  </i>
   <i type="logical" name="LVEL"> F  </i>
   <i type="int" name="KINTER">     0</i>
   <i name="CSHIFT">      0.10000000</i>
   <i name="OMEGAMAX">     -1.00000000</i>
   <i name="DEG_THRESHOLD">      0.00200000</i>
  </separator>
  <separator name="orbital magnetization" >
   <i type="logical" name="NUCIND"> F  </i>
   <v name="MAGPOS">      0.00000000      0.00000000      0.00000000</v>
   <i type="logical" name="LNICSALL"> T  </i>
   <i type="logical" name="ORBITALMAG"> F  </i>
   <i type="logical" name="LMAGBLOCH"> F  </i>
   <i type="logical" name="LCHIMAG"> F  </i>
   <i type="logical" name="LGAUGE"> T  </i>
   <i type="int" name="MAGATOM">     0</i>
   <v name="MAGDIPOL">      0.00000000      0.00000000      0.00000000</v>
   <v name="AVECCONST">      0.00000000      0.00000000      0.00000000</v>
  </separator>
  <separator name="response functions" >
   <i type="logical" name="LADDER"> F  </i>
   <i type="logical" name="LFXC"> F  </i>
   <i type="logical" name="LHARTREE"> T  </i>
   <i type="int" name="IBSE">     0</i>
   <v type="int" name="KPOINT">    -1     0     0     0</v>
   <i type="logical" name="LTCTE"> F  </i>
   <i type="logical" name="LTETE"> F  </i>
   <i type="logical" name="LTRIPLET"> F  </i>
   <i type="logical" name="LFXCEPS"> F  </i>
   <i type="logical" name="LFXHEG"> F  </i>
   <i type="int" name="NATURALO">     0</i>
   <i type="logical" name="L2ORDER"> F  </i>
   <i type="logical" name="LUSEW"> F  </i>
   <i name="ENCUTGW">     -2.00000000</i>
   <i name="ENCUTGWSOFT">     -2.00000000</i>
   <i name="ENCUTLF">     -1.00000000</i>
   <i type="int" name="LMAXMP2">    -1</i>
   <i name="SCISSOR">      0.00000000</i>
   <i type="int" name="NOMEGA">     0</i>
   <i type="int" name="NOMEGAR">     0</i>
   <i type="int" name="NBANDSGW">    -1</i>
   <i type="int" name="NBANDSO">    -1</i>
   <i type="int" name="NBANDSV">    -1</i>
   <i type="int" name="NELM">     1</i>
   <i type="int" name="NELMHF">     1</i>
   <i type="int" name="DIM">     3</i>
   <i type="int" name="ANTIRES">     0</i>
   <i name="OMEGAMAX">    -30.00000000</i>
   <i name="OMEGAMIN">    -30.00000000</i>
   <i name="OMEGATL">   -200.00000000</i>
   <i type="int" name="OMEGAGRID">     0</i>
   <i name="CSHIFT">     -0.10000000</i>
   <i type="logical" name="SELFENERGY"> F  </i>
   <i type="logical" name="LSPECTRAL"> F  </i>
   <i type="logical" name="LSPECTRALGW"> F  </i>
   <i type="logical" name="LSINGLES"> F  </i>
   <i type="logical" name="LFERMIGW"> F  </i>
   <i type="logical" name="ODDONLYGW"> F  </i>
   <i type="logical" name="EVENONLYGW"> F  </i>
   <i type="int" name="NKREDLFX">     1</i>
   <i type="int" name="NKREDLFY">     1</i>
   <i type="int" name="NKREDLFZ">     1</i>
   <i type="int" name="MAXMEM">  1800</i>
   <i type="int" name="TELESCOPE">     0</i>
   <i type="int" name="TAUPAR">     1</i>
   <i type="int" name="OMEGAPAR">    -1</i>
   <i name="LAMBDA">      1.00000000</i>
  </separator>
  <separator name="External order field" >
   <i name="OFIELD_KAPPA">      0.00000000</i>
   <v name="OFIELD_K">      0.00000000      0.00000000      0.00000000</v>
   <i name="OFIELD_Q6_NEAR">      0.00000000</i>
   <i name="OFIELD_Q6_FAR">      0.00000000</i>
   <i name="OFIELD_A">      0.00000000</i>
  </separator>
 </parameters>
 <atominfo>
  <atoms>     112 </atoms>
  <types>       5 </types>
  <array name="atoms" >
   <dimension dim="1">ion</dimension>
   <field type="string">element</field>
   <field type="int">atomtype</field>
   <set>
    <rc><c>Al</c><c>   1</c></rc>
    <rc><c>C </c><c>   2</c></rc>
    <rc><c>H </c><c>   3</c></rc>
    <rc><c>H </c><c>   3</c></rc>
    <rc><c>H </c><c>   3</c></rc>
    <rc><c>O </c><c>   4</c></rc>
    <rc><c>O </c><c>   4</c></rc>
    <rc><c>O </c><c>   4</c></rc>
    <rc><c>O </c><c>   4</c></rc>
    <rc><c>O </c><c>   4</c></rc>
    <rc><c>O </c><c>   4</c></rc>
    <rc><c>O </c><c>   4</c></rc>
    <rc><c>O </c><c>   4</c></rc>
    <rc><c>O </c><c>   4</c></rc>
    <rc><c>O </c><c>   4</c></rc>
    <rc><c>O </c><c>   4</c></rc>
    <rc><c>O </c><c>   4</c></rc>
    <rc><c>O </c><c>   4</c></rc>
    <rc><c>O </c><c>   4</c></rc>
    <rc><c>O </c><c>   4</c></rc>
    <rc><c>O </c><c>   4</c></rc>
    <rc><c>O </c><c>   4</c></rc>
    <rc><c>O </c><c>   4</c></rc>
    <rc><c>O </c><c>   4</c></rc>
    <rc><c>O </c><c>   4</c></rc>
    <rc><c>O </c><c>   4</c></rc>
    <rc><c>O </c><c>   4</c></rc>
    <rc><c>O </c><c>   4</c></rc>
    <rc><c>O </c><c>   4</c></rc>
    <rc><c>O </c><c>   4</c></rc>
    <rc><c>O </c><c>   4</c></rc>
    <rc><c>O </c><c>   4</c></rc>
    <rc><c>O </c><c>   4</c></rc>
    <rc><c>O </c><c>   4</c></rc>
    <rc><c>O </c><c>   4</c></rc>
    <rc><c>O </c><c>   4</c></rc>
    <rc><c>O </c><c>   4</c></rc>
    <rc><c>O </c><c>   4</c></rc>
    <rc><c>O </c><c>   4</c></rc>
    <rc><c>O </c><c>   4</c></rc>
    <rc><c>O </c><c>   4</c></rc>
    <rc><c>O </c><c>   4</c></rc>
    <rc><c>O </c><c>   4</c></rc>
    <rc><c>O </c><c>   4</c></rc>
    <rc><c>O </c><c>   4</c></rc>
    <rc><c>O </c><c>   4</c></rc>
    <rc><c>O </c><c>   4</c></rc>
    <rc><c>O </c><c>   4</c></rc>
    <rc><c>O </c><c>   4</c></rc>
    <rc><c>O </c><c>   4</c></rc>
    <rc><c>O </c><c>   4</c></rc>
    <rc><c>O </c><c>   4</c></rc>
    <rc><c>O </c><c>   4</c></rc>
    <rc><c>O </c><c>   4</c></rc>
    <rc><c>O </c><c>   4</c></rc>
    <rc><c>O </c><c>   4</c></rc>
    <rc><c>O </c><c>   4</c></rc>
    <rc><c>O </c><c>   4</c></rc>
    <rc><c>O </c><c>   4</c></rc>
    <rc><c>O </c><c>   4</c></rc>
    <rc><c>O </c><c>   4</c></rc>
    <rc><c>O </c><c>   4</c></rc>
    <rc><c>O </c><c>   4</c></rc>
    <rc><c>O </c><c>   4</c></rc>
    <rc><c>O </c><c>   4</c></rc>
    <rc><c>O </c><c>   4</c></rc>
    <rc><c>O </c><c>   4</c></rc>
    <rc><c>O </c><c>   4</c></rc>
    <rc><c>O </c><c>   4</c></rc>
    <rc><c>O </c><c>   4</c></rc>
    <rc><c>O </c><c>   4</c></rc>
    <rc><c>O </c><c>   4</c></rc>
    <rc><c>O </c><c>   4</c></rc>
    <rc><c>O </c><c>   4</c></rc>
    <rc><c>O </c><c>   4</c></rc>
    <rc><c>O </c><c>   4</c></rc>
    <rc><c>O </c><c>   4</c></rc>
    <rc><c>Si</c><c>   5</c></rc>
    <rc><c>Si</c><c>   5</c></rc>
    <rc><c>Si</c><c>   5</c></rc>
    <rc><c>Si</c><c>   5</c></rc>
    <rc><c>Si</c><c>   5</c></rc>
    <rc><c>Si</c><c>   5</c></rc>
    <rc><c>Si</c><c>   5</c></rc>
    <rc><c>Si</c><c>   5</c></rc>
    <rc><c>Si</c><c>   5</c></rc>
    <rc><c>Si</c><c>   5</c></rc>
    <rc><c>Si</c><c>   5</c></rc>
    <rc><c>Si</c><c>   5</c></rc>
    <rc><c>Si</c><c>   5</c></rc>
    <rc><c>Si</c><c>   5</c></rc>
    <rc><c>Si</c><c>   5</c></rc>
    <rc><c>Si</c><c>   5</c></rc>
    <rc><c>Si</c><c>   5</c></rc>
    <rc><c>Si</c><c>   5</c></rc>
    <rc><c>Si</c><c>   5</c></rc>
    <rc><c>Si</c><c>   5</c></rc>
    <rc><c>Si</c><c>   5</c></rc>
    <rc><c>Si</c><c>   5</c></rc>
    <rc><c>Si</c><c>   5</c></rc>
    <rc><c>Si</c><c>   5</c></rc>
    <rc><c>Si</c><c>   5</c></rc>
    <rc><c>Si</c><c>   5</c></rc>
    <rc><c>Si</c><c>   5</c></rc>
    <rc><c>Si</c><c>   5</c></rc>
    <rc><c>Si</c><c>   5</c></rc>
    <rc><c>Si</c><c>   5</c></rc>
    <rc><c>Si</c><c>   5</c></rc>
    <rc><c>Si</c><c>   5</c></rc>
    <rc><c>Si</c><c>   5</c></rc>
    <rc><c>Si</c><c>   5</c></rc>
    <rc><c>Si</c><c>   5</c></rc>
   </set>
  </array>
  <array name="atomtypes" >
   <dimension dim="1">type</dimension>
   <field type="int">atomspertype</field>
   <field type="string">element</field>
   <field>mass</field>
   <field>valence</field>
   <field type="string">pseudopotential</field>
   <set>
    <rc><c>   1</c><c>Al</c><c>     26.98100000</c><c>      3.00000000</c><c>  PAW_PBE Al 04Jan2001                  </c></rc>
    <rc><c>   1</c><c>C </c><c>     12.01100000</c><c>      4.00000000</c><c>  PAW_PBE C 08Apr2002                   </c></rc>
    <rc><c>   3</c><c>H </c><c>      1.00000000</c><c>      1.00000000</c><c>  PAW_PBE H 15Jun2001                   </c></rc>
    <rc><c>  72</c><c>O </c><c>     16.00000000</c><c>      6.00000000</c><c>  PAW_PBE O 08Apr2002                   </c></rc>
    <rc><c>  35</c><c>Si</c><c>     28.08500000</c><c>      4.00000000</c><c>  PAW_PBE Si 05Jan2001                  </c></rc>
   </set>
  </array>
 </atominfo>
 <structure name="initialpos" >
  <crystal>
   <varray name="basis" >
    <v>      13.72957181      -0.00462456      -0.00141144 </v>
    <v>      -6.86873914      11.89091482       0.00181973 </v>
    <v>      -0.00151065       0.00130727      14.89037843 </v>
   </varray>
   <i name="volume">   2430.48798979 </i>
   <varray name="rec_basis" >
    <v>       0.07284966       0.04208131       0.00000370 </v>
    <v>       0.00002833       0.08411419      -0.00000738 </v>
    <v>       0.00000690      -0.00000629       0.06715746 </v>
   </varray>
  </crystal>
  <varray name="positions" >
   <v>       0.57249372       0.67554592       0.56728954 </v>
   <v>       0.39321313       0.60545046       0.44262211 </v>
   <v>       0.43476667       0.69725171       0.44065098 </v>
   <v>       0.42637827       0.57394246       0.39006743 </v>
   <v>       0.30209358       0.56867927       0.43618297 </v>
   <v>       0.01522361       0.33450517       0.83929938 </v>
   <v>       0.20548918       0.41445092       0.54616531 </v>
   <v>       0.54940271       0.09589788       0.20303674 </v>
   <v>       0.87731309       0.76163771       0.86829094 </v>
   <v>       0.44464973       0.55087847       0.81729504 </v>
   <v>       0.12341309       0.88031015       0.13085384 </v>
   <v>       0.09053327       0.54739261       0.80217595 </v>
   <v>       0.41346931       0.20738614       0.46027522 </v>
   <v>       0.76449373       0.88101314       0.14070085 </v>
   <v>       0.22035092       0.78184405       0.53718805 </v>
   <v>       0.90359077       0.09935682       0.13013388 </v>
   <v>       0.23674387       0.12034119       0.86710643 </v>
   <v>       0.87834791       0.44024690       0.45533002 </v>
   <v>       0.43904508       0.87095724       0.54594460 </v>
   <v>       0.98530311       0.31624797       0.16849638 </v>
   <v>       0.65322161       0.01563258       0.51026184 </v>
   <v>       0.00830725       0.65431473       0.49709153 </v>
   <v>       0.33653545       0.31529162       0.16488467 </v>
   <v>       0.98725663       0.66565847       0.16392434 </v>
   <v>       0.36031160       0.36069915       0.50226894 </v>
   <v>       0.68694157       0.01769043       0.17331591 </v>
   <v>       0.66129774       0.98303894       0.84416018 </v>
   <v>       0.99785478       0.34431523       0.50255393 </v>
   <v>       0.78328619       0.22234520       0.46384235 </v>
   <v>       0.33706553       0.02017229       0.16377076 </v>
   <v>       0.91029598       0.45313972       0.20404400 </v>
   <v>       0.30928733       0.33158303       0.82944381 </v>
   <v>       0.44883911       0.90505451       0.80463971 </v>
   <v>       0.07143340       0.66316939       0.66615782 </v>
   <v>       0.66267684       0.07175620       0.33832304 </v>
   <v>       0.99849202       0.74038115       0.99932319 </v>
   <v>       0.59542187       0.93861405       0.67523249 </v>
   <v>       0.93083883       0.59944377       0.33121548 </v>
   <v>       0.25992491       0.26229139       0.99865645 </v>
   <v>       0.40654721       0.34198952       0.33323102 </v>
   <v>       0.79099343       0.57074199       0.46637365 </v>
   <v>       0.74202198       0.99931438       0.00727263 </v>
   <v>       0.58785116       0.80379277       0.54187486 </v>
   <v>       0.57911399       0.64903966       0.67834841 </v>
   <v>       0.26142421       0.00111730       0.99809568 </v>
   <v>       0.05921947       0.40197401       0.67091894 </v>
   <v>       0.40147092       0.06384577       0.33319116 </v>
   <v>       0.35390664       0.42835769       0.66930321 </v>
   <v>       0.74511143       0.74539440       0.00542472 </v>
   <v>       0.55008144       0.45108596       0.19851417 </v>
   <v>       0.87625952       0.12033260       0.87180801 </v>
   <v>       0.33405265       0.92796765       0.66802737 </v>
   <v>       0.57260123       0.42245846       0.45405566 </v>
   <v>       0.67020305       0.58571549       0.33262247 </v>
   <v>       0.93463350       0.33343675       0.33477763 </v>
   <v>       0.34850953       0.99755163       0.50113946 </v>
   <v>       0.31212536       0.98334595       0.83152756 </v>
   <v>       0.90453281       0.80140056       0.12913994 </v>
   <v>       0.23068968       0.76622109       0.79081438 </v>
   <v>       0.12280668       0.24026629       0.13410507 </v>
   <v>       0.56357888       0.14002164       0.45702532 </v>
   <v>       0.22822627       0.46605691       0.78555688 </v>
   <v>       0.20026648       0.09964579       0.12193778 </v>
   <v>       0.99949159       0.25835639       0.00366012 </v>
   <v>       0.09648652       0.90196592       0.87651758 </v>
   <v>       0.79918141       0.90195239       0.87869365 </v>
   <v>       0.41816122       0.57514010       0.53187408 </v>
   <v>       0.53233970       0.76945778       0.79406237 </v>
   <v>       0.77021810       0.53114493       0.20474480 </v>
   <v>       0.13370985       0.56179636       0.54427978 </v>
   <v>       0.46764156       0.23306995       0.21727645 </v>
   <v>       0.64486158       0.63701216       0.49716759 </v>
   <v>       0.76879166       0.23391349       0.21498261 </v>
   <v>       0.66071879       0.68368193       0.84410141 </v>
   <v>       0.01442091       0.68622429       0.83142245 </v>
   <v>       0.09541697       0.19738627       0.87701459 </v>
   <v>       0.68711231       0.66624328       0.16948203 </v>
   <v>       0.55982270       0.89780245       0.77848325 </v>
   <v>       0.99692848       0.77280202       0.89431547 </v>
   <v>       0.89847524       0.33348015       0.23064717 </v>
   <v>       0.77446247       0.99957663       0.11228879 </v>
   <v>       0.09823209       0.43169098       0.56700340 </v>
   <v>       0.33390539       0.44444096       0.77607744 </v>
   <v>       0.00297083       0.77208422       0.10516433 </v>
   <v>       0.33147853       0.89500171       0.77327393 </v>
   <v>       0.23046851       0.00062283       0.10349400 </v>
   <v>       0.23010828       0.22884291       0.10416617 </v>
   <v>       0.09867356       0.43756243       0.77484157 </v>
   <v>       0.66443118       0.11143867       0.44187277 </v>
   <v>       0.00229808       0.22759038       0.10860770 </v>
   <v>       0.89810082       0.33510410       0.43830630 </v>
   <v>       0.33634796       0.89507802       0.56355796 </v>
   <v>       0.90172665       0.56656123       0.43673228 </v>
   <v>       0.10210581       0.66642332       0.77231798 </v>
   <v>       0.33141157       0.43864342       0.56471271 </v>
   <v>       0.89899160       0.56239523       0.22663546 </v>
   <v>       0.77596409       0.77363943       0.11081701 </v>
   <v>       0.66954233       0.55534451       0.43873099 </v>
   <v>       0.44007807       0.33367042       0.43721888 </v>
   <v>       0.10797783       0.66499368       0.56194015 </v>
   <v>       0.22586603       0.00098516       0.89383365 </v>
   <v>       0.66999627       0.55848256       0.22696865 </v>
   <v>       0.55599961       0.66479239       0.78099630 </v>
   <v>       0.99676137       0.22722078       0.89816608 </v>
   <v>       0.77034341       0.77347561       0.89915792 </v>
   <v>       0.66750580       0.10532450       0.23285158 </v>
   <v>       0.22503833       0.22813831       0.89386923 </v>
   <v>       0.44015396       0.33469779       0.22895304 </v>
   <v>       0.76940780       0.00037344       0.90080033 </v>
   <v>       0.56951514       0.90559986       0.56911658 </v>
   <v>       0.43888189       0.10349140       0.22965273 </v>
   <v>       0.43249492       0.10224134       0.43778259 </v>
  </varray>
 </structure>
 <calculation>
  <scstep>
   <time name="dav">    2.23    2.24</time>
   <time name="total">    2.32    2.35</time>
   <energy>
    <i name="alphaZ">    476.21782361 </i>
    <i name="ewald">  -2498.76010831 </i>
    <i name="hartreedc"> -28673.10673031 </i>
    <i name="XCdc">   1690.22413591 </i>
    <i name="pawpsdc">  28217.01960844 </i>
    <i name="pawaedc"> -27699.40053531 </i>
    <i name="eentropy">     -0.00014492 </i>
    <i name="bandstr">  -2054.34601503 </i>
    <i name="atom">  34968.35250874 </i>
    <i name="e_fr_energy">   4426.20054283 </i>
    <i name="e_wo_entrp">   4426.20068775 </i>
    <i name="e_0_energy">   4426.20061529 </i>
   </energy>
  </scstep>
  <scstep>
   <time name="dav">    2.43    2.44</time>
   <time name="total">    2.43    2.45</time>
   <energy>
    <i name="e_fr_energy">   -415.69295113 </i>
    <i name="e_wo_entrp">   -415.69295113 </i>
    <i name="e_0_energy">   -415.69295113 </i>
   </energy>
  </scstep>
  <scstep>
   <time name="dav">    2.31    2.32</time>
   <time name="total">    2.31    2.32</time>
   <energy>
    <i name="e_fr_energy">   -976.22384662 </i>
    <i name="e_wo_entrp">   -976.22384662 </i>
    <i name="e_0_energy">   -976.22384662 </i>
   </energy>
  </scstep>
  <scstep>
   <time name="dav">    2.25    2.26</time>
   <time name="total">    2.29    2.31</time>
   <energy>
    <i name="e_fr_energy">   -989.43083755 </i>
    <i name="e_wo_entrp">   -989.43083755 </i>
    <i name="e_0_energy">   -989.43083755 </i>
   </energy>
  </scstep>
  <scstep>
   <time name="dav">    2.24    2.25</time>
   <time name="total">    2.33    2.35</time>
   <energy>
    <i name="e_fr_energy">   -989.84720129 </i>
    <i name="e_wo_entrp">   -989.84720129 </i>
    <i name="e_0_energy">   -989.84720129 </i>
   </energy>
  </scstep>
  <scstep>
   <time name="dav">    2.17    2.18</time>
   <time name="total">    2.29    2.30</time>
   <energy>
    <i name="e_fr_energy">   -873.73757671 </i>
    <i name="e_wo_entrp">   -873.73757671 </i>
    <i name="e_0_energy">   -873.73757671 </i>
   </energy>
  </scstep>
  <scstep>
   <time name="dav">    2.40    2.41</time>
   <time name="total">    2.54    2.55</time>
   <energy>
    <i name="e_fr_energy">   -873.22916092 </i>
    <i name="e_wo_entrp">   -873.22916092 </i>
    <i name="e_0_energy">   -873.22916092 </i>
   </energy>
  </scstep>
  <scstep>
   <time name="dav">    2.23    2.23</time>
   <time name="total">    2.35    2.36</time>
   <energy>
    <i name="e_fr_energy">   -872.74791250 </i>
    <i name="e_wo_entrp">   -872.74791250 </i>
    <i name="e_0_energy">   -872.74791250 </i>
   </energy>
  </scstep>
  <scstep>
   <time name="dav">    2.21    2.22</time>
   <time name="total">    2.33    2.34</time>
   <energy>
    <i name="e_fr_energy">   -872.61023889 </i>
    <i name="e_wo_entrp">   -872.61023889 </i>
    <i name="e_0_energy">   -872.61023889 </i>
   </energy>
  </scstep>
  <scstep>
   <time name="dav">    2.17    2.18</time>
   <time name="total">    2.29    2.31</time>
   <energy>
    <i name="e_fr_energy">   -872.61282396 </i>
    <i name="e_wo_entrp">   -872.61282396 </i>
    <i name="e_0_energy">   -872.61282396 </i>
   </energy>
  </scstep>
  <scstep>
   <time name="dav">    2.21    2.22</time>
   <time name="total">    2.35    2.36</time>
   <energy>
    <i name="e_fr_energy">   -872.61469179 </i>
    <i name="e_wo_entrp">   -872.61469179 </i>
    <i name="e_0_energy">   -872.61469179 </i>
   </energy>
  </scstep>
  <scstep>
   <time name="dav">    2.12    2.13</time>
   <time name="total">    2.24    2.25</time>
   <energy>
    <i name="e_fr_energy">   -872.62131423 </i>
    <i name="e_wo_entrp">   -872.62131423 </i>
    <i name="e_0_energy">   -872.62131423 </i>
   </energy>
  </scstep>
  <scstep>
   <time name="dav">    2.17    2.18</time>
   <time name="total">    2.30    2.31</time>
   <energy>
    <i name="e_fr_energy">   -872.63177047 </i>
    <i name="e_wo_entrp">   -872.63177047 </i>
    <i name="e_0_energy">   -872.63177047 </i>
   </energy>
  </scstep>
  <scstep>
   <time name="dav">    2.15    2.16</time>
   <time name="total">    2.27    2.28</time>
   <energy>
    <i name="e_fr_energy">   -872.64092195 </i>
    <i name="e_wo_entrp">   -872.64092195 </i>
    <i name="e_0_energy">   -872.64092195 </i>
   </energy>
  </scstep>
  <scstep>
   <time name="dav">    2.29    2.30</time>
   <time name="total">    2.40    2.42</time>
   <energy>
    <i name="e_fr_energy">   -872.64256017 </i>
    <i name="e_wo_entrp">   -872.64256017 </i>
    <i name="e_0_energy">   -872.64256017 </i>
   </energy>
  </scstep>
  <scstep>
   <time name="dav">    2.25    2.26</time>
   <time name="total">    2.38    2.40</time>
   <energy>
    <i name="e_fr_energy">   -872.64297208 </i>
    <i name="e_wo_entrp">   -872.64297208 </i>
    <i name="e_0_energy">   -872.64297208 </i>
   </energy>
  </scstep>
  <scstep>
   <time name="dav">    2.19    2.20</time>
   <time name="total">    2.33    2.34</time>
   <energy>
    <i name="e_fr_energy">   -872.64334377 </i>
    <i name="e_wo_entrp">   -872.64334377 </i>
    <i name="e_0_energy">   -872.64334377 </i>
   </energy>
  </scstep>
  <scstep>
   <time name="dav">    2.12    2.13</time>
   <time name="total">    2.24    2.25</time>
   <energy>
    <i name="e_fr_energy">   -872.64369158 </i>
    <i name="e_wo_entrp">   -872.64369158 </i>
    <i name="e_0_energy">   -872.64369158 </i>
   </energy>
  </scstep>
  <scstep>
   <time name="dav">    2.03    2.04</time>
   <time name="total">    2.14    2.15</time>
   <energy>
    <i name="e_fr_energy">   -872.64370860 </i>
    <i name="e_wo_entrp">   -872.64370860 </i>
    <i name="e_0_energy">   -872.64370860 </i>
   </energy>
  </scstep>
  <scstep>
   <time name="dav">    1.76    1.77</time>
   <time name="total">    1.88    1.88</time>
   <energy>
    <i name="e_fr_energy">   -872.64371617 </i>
    <i name="e_wo_entrp">   -872.64371617 </i>
    <i name="e_0_energy">   -872.64371617 </i>
   </energy>
  </scstep>
  <scstep>
   <time name="dav">    1.71    1.72</time>
   <time name="total">    1.82    1.83</time>
   <energy>
    <i name="e_fr_energy">   -872.64373250 </i>
    <i name="e_wo_entrp">   -872.64373250 </i>
    <i name="e_0_energy">   -872.64373250 </i>
   </energy>
  </scstep>
  <scstep>
   <time name="dav">    1.58    1.59</time>
   <time name="total">    1.69    1.70</time>
   <energy>
    <i name="e_fr_energy">   -872.64373667 </i>
    <i name="e_wo_entrp">   -872.64373667 </i>
    <i name="e_0_energy">   -872.64373667 </i>
   </energy>
  </scstep>
  <scstep>
   <time name="dav">    1.66    1.66</time>
   <time name="total">    1.71    1.72</time>
   <energy>
    <i name="alphaZ">    476.21782361 </i>
    <i name="ewald">  -2498.76010831 </i>
    <i name="hartreedc"> -30561.83875427 </i>
    <i name="XCdc">   1801.93763322 </i>
    <i name="pawpsdc">  91417.02372680 </i>
    <i name="pawaedc"> -90924.54339910 </i>
    <i name="eentropy">     -0.00000000 </i>
    <i name="bandstr">  -5551.03316775 </i>
    <i name="atom">  34968.35250874 </i>
    <i name="e_fr_energy">   -872.64373707 </i>
    <i name="e_wo_entrp">   -872.64373707 </i>
    <i name="e_0_energy">   -872.64373707 </i>
   </energy>
  </scstep>
  <structure>
   <crystal>
    <varray name="basis" >
     <v>      13.72957181      -0.00462456      -0.00141144 </v>
     <v>      -6.86873914      11.89091482       0.00181973 </v>
     <v>      -0.00151065       0.00130727      14.89037843 </v>
    </varray>
    <i name="volume">   2430.48798979 </i>
    <varray name="rec_basis" >
     <v>       0.07284966       0.04208131       0.00000370 </v>
     <v>       0.00002833       0.08411419      -0.00000738 </v>
     <v>       0.00000690      -0.00000629       0.06715746 </v>
    </varray>
   </crystal>
   <varray name="positions" >
    <v>       0.57249372       0.67554592       0.56728954 </v>
    <v>       0.39321313       0.60545046       0.44262211 </v>
    <v>       0.43476667       0.69725171       0.44065098 </v>
    <v>       0.42637827       0.57394246       0.39006743 </v>
    <v>       0.30209358       0.56867927       0.43618297 </v>
    <v>       0.01522361       0.33450517       0.83929938 </v>
    <v>       0.20548918       0.41445092       0.54616531 </v>
    <v>       0.54940271       0.09589788       0.20303674 </v>
    <v>       0.87731309       0.76163771       0.86829094 </v>
    <v>       0.44464973       0.55087847       0.81729504 </v>
    <v>       0.12341309       0.88031015       0.13085384 </v>
    <v>       0.09053327       0.54739261       0.80217595 </v>
    <v>       0.41346931       0.20738614       0.46027522 </v>
    <v>       0.76449373       0.88101314       0.14070085 </v>
    <v>       0.22035092       0.78184405       0.53718805 </v>
    <v>       0.90359077       0.09935682       0.13013388 </v>
    <v>       0.23674387       0.12034119       0.86710643 </v>
    <v>       0.87834791       0.44024690       0.45533002 </v>
    <v>       0.43904508       0.87095724       0.54594460 </v>
    <v>       0.98530311       0.31624797       0.16849638 </v>
    <v>       0.65322161       0.01563258       0.51026184 </v>
    <v>       0.00830725       0.65431473       0.49709153 </v>
    <v>       0.33653545       0.31529162       0.16488467 </v>
    <v>       0.98725663       0.66565847       0.16392434 </v>
    <v>       0.36031160       0.36069915       0.50226894 </v>
    <v>       0.68694157       0.01769043       0.17331591 </v>
    <v>       0.66129774       0.98303894       0.84416018 </v>
    <v>       0.99785478       0.34431523       0.50255393 </v>
    <v>       0.78328619       0.22234520       0.46384235 </v>
    <v>       0.33706553       0.02017229       0.16377076 </v>
    <v>       0.91029598       0.45313972       0.20404400 </v>
    <v>       0.30928733       0.33158303       0.82944381 </v>
    <v>       0.44883911       0.90505451       0.80463971 </v>
    <v>       0.07143340       0.66316939       0.66615782 </v>
    <v>       0.66267684       0.07175620       0.33832304 </v>
    <v>       0.99849202       0.74038115       0.99932319 </v>
    <v>       0.59542187       0.93861405       0.67523249 </v>
    <v>       0.93083883       0.59944377       0.33121548 </v>
    <v>       0.25992491       0.26229139       0.99865645 </v>
    <v>       0.40654721       0.34198952       0.33323102 </v>
    <v>       0.79099343       0.57074199       0.46637365 </v>
    <v>       0.74202198       0.99931438       0.00727263 </v>
    <v>       0.58785116       0.80379277       0.54187486 </v>
    <v>       0.57911399       0.64903966       0.67834841 </v>
    <v>       0.26142421       0.00111730       0.99809568 </v>
    <v>       0.05921947       0.40197401       0.67091894 </v>
    <v>       0.40147092       0.06384577       0.33319116 </v>
    <v>       0.35390664       0.42835769       0.66930321 </v>
    <v>       0.74511143       0.74539440       0.00542472 </v>
    <v>       0.55008144       0.45108596       0.19851417 </v>
    <v>       0.87625952       0.12033260       0.87180801 </v>
    <v>       0.33405265       0.92796765       0.66802737 </v>
    <v>       0.57260123       0.42245846       0.45405566 </v>
    <v>       0.67020305       0.58571549       0.33262247 </v>
    <v>       0.93463350       0.33343675       0.33477763 </v>
    <v>       0.34850953       0.99755163       0.50113946 </v>
    <v>       0.31212536       0.98334595       0.83152756 </v>
    <v>       0.90453281       0.80140056       0.12913994 </v>
    <v>       0.23068968       0.76622109       0.79081438 </v>
    <v>       0.12280668       0.24026629       0.13410507 </v>
    <v>       0.56357888       0.14002164       0.45702532 </v>
    <v>       0.22822627       0.46605691       0.78555688 </v>
    <v>       0.20026648       0.09964579       0.12193778 </v>
    <v>       0.99949159       0.25835639       0.00366012 </v>
    <v>       0.09648652       0.90196592       0.87651758 </v>
    <v>       0.79918141       0.90195239       0.87869365 </v>
    <v>       0.41816122       0.57514010       0.53187408 </v>
    <v>       0.53233970       0.76945778       0.79406237 </v>
    <v>       0.77021810       0.53114493       0.20474480 </v>
    <v>       0.13370985       0.56179636       0.54427978 </v>
    <v>       0.46764156       0.23306995       0.21727645 </v>
    <v>       0.64486158       0.63701216       0.49716759 </v>
    <v>       0.76879166       0.23391349       0.21498261 </v>
    <v>       0.66071879       0.68368193       0.84410141 </v>
    <v>       0.01442091       0.68622429       0.83142245 </v>
    <v>       0.09541697       0.19738627       0.87701459 </v>
    <v>       0.68711231       0.66624328       0.16948203 </v>
    <v>       0.55982270       0.89780245       0.77848325 </v>
    <v>       0.99692848       0.77280202       0.89431547 </v>
    <v>       0.89847524       0.33348015       0.23064717 </v>
    <v>       0.77446247       0.99957663       0.11228879 </v>
    <v>       0.09823209       0.43169098       0.56700340 </v>
    <v>       0.33390539       0.44444096       0.77607744 </v>
    <v>       0.00297083       0.77208422       0.10516433 </v>
    <v>       0.33147853       0.89500171       0.77327393 </v>
    <v>       0.23046851       0.00062283       0.10349400 </v>
    <v>       0.23010828       0.22884291       0.10416617 </v>
    <v>       0.09867356       0.43756243       0.77484157 </v>
    <v>       0.66443118       0.11143867       0.44187277 </v>
    <v>       0.00229808       0.22759038       0.10860770 </v>
    <v>       0.89810082       0.33510410       0.43830630 </v>
    <v>       0.33634796       0.89507802       0.56355796 </v>
    <v>       0.90172665       0.56656123       0.43673228 </v>
    <v>       0.10210581       0.66642332       0.77231798 </v>
    <v>       0.33141157       0.43864342       0.56471271 </v>
    <v>       0.89899160       0.56239523       0.22663546 </v>
    <v>       0.77596409       0.77363943       0.11081701 </v>
    <v>       0.66954233       0.55534451       0.43873099 </v>
    <v>       0.44007807       0.33367042       0.43721888 </v>
    <v>       0.10797783       0.66499368       0.56194015 </v>
    <v>       0.22586603       0.00098516       0.89383365 </v>
    <v>       0.66999627       0.55848256       0.22696865 </v>
    <v>       0.55599961       0.66479239       0.78099630 </v>
    <v>       0.99676137       0.22722078       0.89816608 </v>
    <v>       0.77034341       0.77347561       0.89915792 </v>
    <v>       0.66750580       0.10532450       0.23285158 </v>
    <v>       0.22503833       0.22813831       0.89386923 </v>
    <v>       0.44015396       0.33469779       0.22895304 </v>
    <v>       0.76940780       0.00037344       0.90080033 </v>
    <v>       0.56951514       0.90559986       0.56911658 </v>
    <v>       0.43888189       0.10349140       0.22965273 </v>
    <v>       0.43249492       0.10224134       0.43778259 </v>
   </varray>
  </structure>
  <varray name="forces" >
   <v>      -0.02913329      -0.01661293       0.00975681 </v>
   <v>       0.00975199      -0.01330721       0.01871865 </v>
   <v>       0.00868539      -0.00008299       0.00783786 </v>
   <v>       0.01649856      -0.01741525       0.00991069 </v>
   <v>       0.00189223      -0.00148445       0.01239194 </v>
   <v>       0.01481529       0.00025465      -0.00096245 </v>
   <v>      -0.00181333       0.01464955       0.00968214 </v>
   <v>       0.00030046       0.00811528       0.01325835 </v>
   <v>      -0.00072386       0.00846262       0.01365289 </v>
   <v>      -0.00539141       0.00284557      -0.01167943 </v>
   <v>      -0.00815337       0.00477152      -0.01278357 </v>
   <v>       0.00760921       0.00329581      -0.01287098 </v>
   <v>       0.00855470       0.00492692      -0.01440885 </v>
   <v>       0.00643045       0.00458242      -0.01367251 </v>
   <v>       0.00852461      -0.00540221       0.01191120 </v>
   <v>      -0.00295317       0.00091705      -0.01161543 </v>
   <v>      -0.00586861      -0.00454790       0.01431422 </v>
   <v>       0.00340800       0.00159360      -0.01117965 </v>
   <v>      -0.00054464      -0.00134804       0.00756601 </v>
   <v>      -0.00647947      -0.01293714      -0.00074624 </v>
   <v>      -0.01566642      -0.00134113      -0.00115150 </v>
   <v>       0.00879007      -0.01176252       0.00295498 </v>
   <v>       0.00699237      -0.01134029       0.00127685 </v>
   <v>      -0.01408664       0.00187450      -0.00099271 </v>
   <v>       0.00375625       0.01610371      -0.00241244 </v>
   <v>       0.00722187       0.01245410      -0.00003983 </v>
   <v>       0.00807431      -0.01124722      -0.00046739 </v>
   <v>      -0.00457993       0.01494350       0.00170977 </v>
   <v>      -0.00723757       0.00427323      -0.01294753 </v>
   <v>      -0.00777521       0.01325904       0.00043936 </v>
   <v>      -0.00751952      -0.00127450       0.01545252 </v>
   <v>      -0.01395988       0.00046079      -0.00019682 </v>
   <v>      -0.00212341      -0.00706997      -0.01371593 </v>
   <v>       0.01556717      -0.00087678      -0.00048020 </v>
   <v>      -0.00763474       0.01253704       0.00112685 </v>
   <v>      -0.00735795       0.01290159       0.00101070 </v>
   <v>      -0.00692806      -0.01536848      -0.00232849 </v>
   <v>      -0.00762045      -0.01120917       0.00004009 </v>
   <v>      -0.00792650      -0.01167955      -0.00023664 </v>
   <v>       0.01270122       0.00461843       0.00264866 </v>
   <v>      -0.00111902      -0.01001711      -0.01387483 </v>
   <v>       0.01407804       0.00078392       0.00080809 </v>
   <v>      -0.01073086      -0.01166323       0.00728807 </v>
   <v>      -0.01818573       0.00125775      -0.00549536 </v>
   <v>      -0.01487163      -0.00063713      -0.00110542 </v>
   <v>       0.00729019       0.01426685      -0.00211058 </v>
   <v>       0.00826193       0.01235026       0.00057913 </v>
   <v>      -0.00893456       0.01327224      -0.00507421 </v>
   <v>       0.00699429       0.01197325       0.00035454 </v>
   <v>       0.00589462      -0.00351383       0.01481645 </v>
   <v>       0.00701434      -0.00349839       0.01335494 </v>
   <v>       0.00713396      -0.01308233      -0.00125968 </v>
   <v>      -0.00492249       0.00192143      -0.01229478 </v>
   <v>       0.00332794      -0.01193337       0.00262063 </v>
   <v>      -0.01441633      -0.00135401      -0.00026333 </v>
   <v>       0.01496063      -0.00090611       0.00036949 </v>
   <v>      -0.00554567      -0.01342777      -0.00081279 </v>
   <v>      -0.00073770      -0.00308872      -0.01098500 </v>
   <v>      -0.00163158       0.00184646      -0.01058453 </v>
   <v>      -0.00102575      -0.00751561      -0.01255817 </v>
   <v>      -0.00046533      -0.00225580      -0.01160942 </v>
   <v>      -0.00101388      -0.00226252      -0.01052450 </v>
   <v>       0.00139858       0.00231551      -0.01106927 </v>
   <v>       0.00768301      -0.01194578       0.00025255 </v>
   <v>       0.00253650      -0.00032314       0.01184604 </v>
   <v>      -0.00207160      -0.00217787       0.01121676 </v>
   <v>       0.00375695      -0.00189323       0.01040069 </v>
   <v>       0.00188159       0.00055140      -0.00744198 </v>
   <v>       0.00060588       0.00378888       0.01258267 </v>
   <v>       0.00262892      -0.00152330       0.00742852 </v>
   <v>      -0.00102223      -0.00160152       0.01259602 </v>
   <v>      -0.01336782      -0.01219526      -0.00153806 </v>
   <v>       0.00146163      -0.00136763       0.01031038 </v>
   <v>      -0.00596147       0.01313708      -0.00017541 </v>
   <v>       0.00871979       0.01188564      -0.00058262 </v>
   <v>       0.00121862       0.00248220       0.01173279 </v>
   <v>       0.01430049       0.00094930       0.00078196 </v>
   <v>       0.00469681      -0.02826625      -0.01899591 </v>
   <v>       0.00505959       0.02858511       0.02184892 </v>
   <v>      -0.02138274      -0.01832649       0.02200757 </v>
   <v>       0.02089576       0.01789630      -0.02254167 </v>
   <v>       0.00351005       0.03540776       0.00960566 </v>
   <v>      -0.02752943       0.00945855      -0.02053293 </v>
   <v>      -0.02632299       0.01112035      -0.01978595 </v>
   <v>      -0.00334925      -0.02864936      -0.01950470 </v>
   <v>      -0.02420397       0.01674287      -0.01892769 </v>
   <v>       0.00356172      -0.02752071      -0.01870573 </v>
   <v>       0.02913950       0.01141930      -0.01880084 </v>
   <v>      -0.02523440       0.00917634      -0.02105457 </v>
   <v>      -0.00446578      -0.02525997      -0.01946087 </v>
   <v>      -0.02191114       0.01805360      -0.02069878 </v>
   <v>       0.02989583      -0.01466995       0.01680548 </v>
   <v>       0.00528512      -0.03030527      -0.02075936 </v>
   <v>       0.02291190       0.01691031      -0.01905105 </v>
   <v>       0.00119138       0.03264607       0.01298320 </v>
   <v>      -0.02615366      -0.01079485       0.02293149 </v>
   <v>       0.02576170       0.00847632      -0.02049808 </v>
   <v>      -0.01124090      -0.02664589      -0.02612923 </v>
   <v>       0.01490573       0.02372998      -0.02226064 </v>
   <v>       0.02674545      -0.01829521       0.01607499 </v>
   <v>      -0.02425824      -0.01809613       0.02201954 </v>
   <v>       0.02310311      -0.00947742       0.02206129 </v>
   <v>      -0.02433175       0.01966071      -0.01756534 </v>
   <v>       0.02718651      -0.01129578       0.02047616 </v>
   <v>      -0.00401719       0.02790399       0.02035277 </v>
   <v>       0.00336118       0.02931617       0.01919646 </v>
   <v>      -0.02729745      -0.00995197       0.02107235 </v>
   <v>       0.01922406      -0.01257763       0.02361497 </v>
   <v>       0.02113138      -0.01652139       0.01916661 </v>
   <v>      -0.03232159      -0.01747867       0.01342864 </v>
   <v>      -0.00472039       0.02972613       0.02099932 </v>
   <v>       0.02795315       0.01177139      -0.02012374 </v>
  </varray>
  <varray name="stress" >
   <v>     -31.04083118       0.08738248      -0.13676228 </v>
   <v>       0.08738247     -30.08481574       0.78794036 </v>
   <v>      -0.13676230       0.78794034     -31.52542023 </v>
  </varray>
  <energy>
   <i name="e_fr_energy">   -882.71734940 </i>
   <i name="e_wo_entrp">   -882.71734940 </i>
   <i name="e_0_energy">     -0.00000000 </i>
  </energy>
  <time name="totalsc">   53.60   53.96</time>
  <eigenvalues>
   <array>
    <dimension dim="1">band</dimension>
    <dimension dim="2">kpoint</dimension>
    <dimension dim="3">spin</dimension>
    <field>eigene</field>
    <field>occ</field>
    <set>
     <set comment="spin 1">
      <set comment="kpoint 1">
       <r>  -22.4819    1.0000 </r>
       <r>  -22.0059    1.0000 </r>
       <r>  -21.8529    1.0000 </r>
       <r>  -21.8208    1.0000 </r>
       <r>  -21.7534    1.0000 </r>
       <r>  -21.7304    1.0000 </r>
       <r>  -21.6752    1.0000 </r>
       <r>  -21.6203    1.0000 </r>
       <r>  -21.5351    1.0000 </r>
       <r>  -21.4940    1.0000 </r>
       <r>  -21.4245    1.0000 </r>
       <r>  -21.3772    1.0000 </r>
       <r>  -21.3481    1.0000 </r>
       <r>  -21.3365    1.0000 </r>
       <r>  -21.2911    1.0000 </r>
       <r>  -21.2756    1.0000 </r>
       <r>  -21.2576    1.0000 </r>
       <r>  -21.1472    1.0000 </r>
       <r>  -21.0780    1.0000 </r>
       <r>  -21.0018    1.0000 </r>
       <r>  -20.9786    1.0000 </r>
       <r>  -20.9691    1.0000 </r>
       <r>  -20.9346    1.0000 </r>
       <r>  -20.9173    1.0000 </r>
       <r>  -20.8864    1.0000 </r>
       <r>  -20.8215    1.0000 </r>
       <r>  -20.7873    1.0000 </r>
       <r>  -20.6964    1.0000 </r>
       <r>  -20.6469    1.0000 </r>
       <r>  -20.5715    1.0000 </r>
       <r>  -20.4883    1.0000 </r>
       <r>  -20.4693    1.0000 </r>
       <r>  -20.4216    1.0000 </r>
       <r>  -20.3602    1.0000 </r>
       <r>  -20.3309    1.0000 </r>
       <r>  -20.2876    1.0000 </r>
       <r>  -20.2209    1.0000 </r>
       <r>  -20.1402    1.0000 </r>
       <r>  -20.1242    1.0000 </r>
       <r>  -20.1031    1.0000 </r>
       <r>  -20.0826    1.0000 </r>
       <r>  -20.0706    1.0000 </r>
       <r>  -20.0693    1.0000 </r>
       <r>  -20.0603    1.0000 </r>
       <r>  -20.0552    1.0000 </r>
       <r>  -20.0507    1.0000 </r>
       <r>  -20.0440    1.0000 </r>
       <r>  -20.0404    1.0000 </r>
       <r>  -20.0384    1.0000 </r>
       <r>  -20.0344    1.0000 </r>
       <r>  -20.0306    1.0000 </r>
       <r>  -20.0192    1.0000 </r>
       <r>  -20.0136    1.0000 </r>
       <r>  -20.0113    1.0000 </r>
       <r>  -20.0077    1.0000 </r>
       <r>  -20.0074    1.0000 </r>
       <r>  -20.0011    1.0000 </r>
       <r>  -19.9935    1.0000 </r>
       <r>  -19.9832    1.0000 </r>
       <r>  -19.9804    1.0000 </r>
       <r>  -19.9665    1.0000 </r>
       <r>  -19.9538    1.0000 </r>
       <r>  -19.9302    1.0000 </r>
       <r>  -19.9257    1.0000 </r>
       <r>  -19.8938    1.0000 </r>
       <r>  -19.8683    1.0000 </r>
       <r>  -19.8639    1.0000 </r>
       <r>  -19.8415    1.0000 </r>
       <r>  -19.7907    1.0000 </r>
       <r>  -19.3082    1.0000 </r>
       <r>  -19.0163    1.0000 </r>
       <r>  -18.9922    1.0000 </r>
       <r>  -13.3755    1.0000 </r>
       <r>  -12.2207    1.0000 </r>
       <r>  -11.6912    1.0000 </r>
       <r>  -11.6540    1.0000 </r>
       <r>  -11.4505    1.0000 </r>
       <r>  -11.4137    1.0000 </r>
       <r>  -11.3120    1.0000 </r>
       <r>  -11.2235    1.0000 </r>
       <r>  -11.0245    1.0000 </r>
       <r>  -10.9246    1.0000 </r>
       <r>  -10.6975    1.0000 </r>
       <r>  -10.6444    1.0000 </r>
       <r>  -10.6191    1.0000 </r>
       <r>  -10.5931    1.0000 </r>
       <r>  -10.5649    1.0000 </r>
       <r>  -10.5009    1.0000 </r>
       <r>  -10.4705    1.0000 </r>
       <r>  -10.3356    1.0000 </r>
       <r>  -10.2196    1.0000 </r>
       <r>   -9.9819    1.0000 </r>
       <r>   -9.8081    1.0000 </r>
       <r>   -9.8032    1.0000 </r>
       <r>   -9.7685    1.0000 </r>
       <r>   -9.7397    1.0000 </r>
       <r>   -9.6590    1.0000 </r>
       <r>   -9.6200    1.0000 </r>
       <r>   -9.4421    1.0000 </r>
       <r>   -9.2372    1.0000 </r>
       <r>   -9.1545    1.0000 </r>
       <r>   -9.0388    1.0000 </r>
       <r>   -8.6985    1.0000 </r>
       <r>   -8.6645    1.0000 </r>
       <r>   -8.6370    1.0000 </r>
       <r>   -8.5497    1.0000 </r>
       <r>   -8.5325    1.0000 </r>
       <r>   -8.4902    1.0000 </r>
       <r>   -8.4056    1.0000 </r>
       <r>   -8.3636    1.0000 </r>
       <r>   -8.3420    1.0000 </r>
       <r>   -8.3085    1.0000 </r>
       <r>   -8.2875    1.0000 </r>
       <r>   -8.2373    1.0000 </r>
       <r>   -8.2196    1.0000 </r>
       <r>   -8.1773    1.0000 </r>
       <r>   -8.1598    1.0000 </r>
       <r>   -8.1434    1.0000 </r>
       <r>   -8.1340    1.0000 </r>
       <r>   -8.1067    1.0000 </r>
       <r>   -8.0987    1.0000 </r>
       <r>   -8.0426    1.0000 </r>
       <r>   -7.9946    1.0000 </r>
       <r>   -7.9695    1.0000 </r>
       <r>   -7.9552    1.0000 </r>
       <r>   -7.9024    1.0000 </r>
       <r>   -7.8879    1.0000 </r>
       <r>   -7.8720    1.0000 </r>
       <r>   -7.8473    1.0000 </r>
       <r>   -7.8357    1.0000 </r>
       <r>   -7.8256    1.0000 </r>
       <r>   -7.8039    1.0000 </r>
       <r>   -7.7874    1.0000 </r>
       <r>   -7.7542    1.0000 </r>
       <r>   -7.7086    1.0000 </r>
       <r>   -7.6736    1.0000 </r>
       <r>   -7.6189    1.0000 </r>
       <r>   -7.5202    1.0000 </r>
       <r>   -7.4982    1.0000 </r>
       <r>   -7.4290    1.0000 </r>
       <r>   -7.3886    1.0000 </r>
       <r>   -7.3293    1.0000 </r>
       <r>   -7.2744    1.0000 </r>
       <r>   -7.2120    1.0000 </r>
       <r>   -7.1221    1.0000 </r>
       <r>   -6.6253    1.0000 </r>
       <r>   -6.4031    1.0000 </r>
       <r>   -6.2744    1.0000 </r>
       <r>   -6.2270    1.0000 </r>
       <r>   -6.2090    1.0000 </r>
       <r>   -6.0924    1.0000 </r>
       <r>   -6.0087    1.0000 </r>
       <r>   -5.9964    1.0000 </r>
       <r>   -5.9869    1.0000 </r>
       <r>   -5.9587    1.0000 </r>
       <r>   -5.9473    1.0000 </r>
       <r>   -5.9313    1.0000 </r>
       <r>   -5.9109    1.0000 </r>
       <r>   -5.8843    1.0000 </r>
       <r>   -5.8583    1.0000 </r>
       <r>   -5.8451    1.0000 </r>
       <r>   -5.8237    1.0000 </r>
       <r>   -5.7951    1.0000 </r>
       <r>   -5.7745    1.0000 </r>
       <r>   -5.7271    1.0000 </r>
       <r>   -5.7047    1.0000 </r>
       <r>   -5.6633    1.0000 </r>
       <r>   -5.6228    1.0000 </r>
       <r>   -5.5949    1.0000 </r>
       <r>   -5.5804    1.0000 </r>
       <r>   -5.5547    1.0000 </r>
       <r>   -5.4762    1.0000 </r>
       <r>   -5.3219    1.0000 </r>
       <r>   -5.2853    1.0000 </r>
       <r>   -5.2059    1.0000 </r>
       <r>   -5.1853    1.0000 </r>
       <r>   -5.1442    1.0000 </r>
       <r>   -5.0905    1.0000 </r>
       <r>   -5.0716    1.0000 </r>
       <r>   -5.0627    1.0000 </r>
       <r>   -5.0413    1.0000 </r>
       <r>   -4.9971    1.0000 </r>
       <r>   -4.9876    1.0000 </r>
       <r>   -4.9682    1.0000 </r>
       <r>   -4.9576    1.0000 </r>
       <r>   -4.9336    1.0000 </r>
       <r>   -4.9100    1.0000 </r>
       <r>   -4.8685    1.0000 </r>
       <r>   -4.8388    1.0000 </r>
       <r>   -4.7860    1.0000 </r>
       <r>   -4.7129    1.0000 </r>
       <r>   -4.6881    1.0000 </r>
       <r>   -4.6502    1.0000 </r>
       <r>   -4.6416    1.0000 </r>
       <r>   -4.6116    1.0000 </r>
       <r>   -4.6093    1.0000 </r>
       <r>   -4.5798    1.0000 </r>
       <r>   -4.5633    1.0000 </r>
       <r>   -4.5516    1.0000 </r>
       <r>   -4.5365    1.0000 </r>
       <r>   -4.5326    1.0000 </r>
       <r>   -4.5190    1.0000 </r>
       <r>   -4.5005    1.0000 </r>
       <r>   -4.4879    1.0000 </r>
       <r>   -4.4663    1.0000 </r>
       <r>   -4.4584    1.0000 </r>
       <r>   -4.4482    1.0000 </r>
       <r>   -4.4421    1.0000 </r>
       <r>   -4.4313    1.0000 </r>
       <r>   -4.4290    1.0000 </r>
       <r>   -4.4157    1.0000 </r>
       <r>   -4.4078    1.0000 </r>
       <r>   -4.3942    1.0000 </r>
       <r>   -4.3773    1.0000 </r>
       <r>   -4.3664    1.0000 </r>
       <r>   -4.3575    1.0000 </r>
       <r>   -4.3546    1.0000 </r>
       <r>   -4.3413    1.0000 </r>
       <r>   -4.3217    1.0000 </r>
       <r>   -4.3157    1.0000 </r>
       <r>   -4.2893    1.0000 </r>
       <r>   -4.2673    1.0000 </r>
       <r>   -4.2514    1.0000 </r>
       <r>   -4.2413    1.0000 </r>
       <r>   -4.2261    1.0000 </r>
       <r>   -4.2073    1.0000 </r>
       <r>   -4.2054    1.0000 </r>
       <r>   -4.2028    1.0000 </r>
       <r>   -4.1828    1.0000 </r>
       <r>   -4.1737    1.0000 </r>
       <r>   -4.1335    1.0000 </r>
       <r>   -4.1234    1.0000 </r>
       <r>   -4.1047    1.0000 </r>
       <r>   -4.0743    1.0000 </r>
       <r>   -4.0659    1.0000 </r>
       <r>   -4.0542    1.0000 </r>
       <r>   -4.0281    1.0000 </r>
       <r>   -4.0252    1.0000 </r>
       <r>   -3.9991    1.0000 </r>
       <r>   -3.9814    1.0000 </r>
       <r>   -3.9739    1.0000 </r>
       <r>   -3.9565    1.0000 </r>
       <r>   -3.9497    1.0000 </r>
       <r>   -3.9369    1.0000 </r>
       <r>   -3.9146    1.0000 </r>
       <r>   -3.8902    1.0000 </r>
       <r>   -3.8762    1.0000 </r>
       <r>   -3.8691    1.0000 </r>
       <r>   -3.8467    1.0000 </r>
       <r>   -3.8201    1.0000 </r>
       <r>   -3.8056    1.0000 </r>
       <r>   -3.7831    1.0000 </r>
       <r>   -3.7667    1.0000 </r>
       <r>   -3.7577    1.0000 </r>
       <r>   -3.7423    1.0000 </r>
       <r>   -3.7231    1.0000 </r>
       <r>   -3.7013    1.0000 </r>
       <r>   -3.6865    1.0000 </r>
       <r>   -3.6801    1.0000 </r>
       <r>   -3.6536    1.0000 </r>
       <r>   -3.6054    1.0000 </r>
       <r>   -3.5458    1.0000 </r>
       <r>   -3.5181    1.0000 </r>
       <r>   -3.3941    1.0000 </r>
       <r>   -3.3138    1.0000 </r>
       <r>   -3.2426    1.0000 </r>
       <r>   -3.2246    1.0000 </r>
       <r>   -3.2173    1.0000 </r>
       <r>   -3.1879    1.0000 </r>
       <r>   -3.1694    1.0000 </r>
       <r>   -3.1380    1.0000 </r>
       <r>   -3.1263    1.0000 </r>
       <r>   -3.0925    1.0000 </r>
       <r>   -3.0504    1.0000 </r>
       <r>   -3.0350    1.0000 </r>
       <r>   -3.0254    1.0000 </r>
       <r>   -3.0141    1.0000 </r>
       <r>   -2.9577    1.0000 </r>
       <r>   -2.9508    1.0000 </r>
       <r>   -2.9371    1.0000 </r>
       <r>   -2.8839    1.0000 </r>
       <r>   -2.8682    1.0000 </r>
       <r>   -2.8575    1.0000 </r>
       <r>   -2.8198    1.0000 </r>
       <r>   -2.7903    1.0000 </r>
       <r>   -2.7843    1.0000 </r>
       <r>   -2.7651    1.0000 </r>
       <r>   -2.7544    1.0000 </r>
       <r>   -2.7063    1.0000 </r>
       <r>   -2.6744    1.0000 </r>
       <r>   -2.4432    1.0000 </r>
       <r>    2.9171    0.0000 </r>
       <r>    3.6689    0.0000 </r>
       <r>    3.8010    0.0000 </r>
       <r>    4.0446    0.0000 </r>
       <r>    4.2314    0.0000 </r>
       <r>    4.2854    0.0000 </r>
       <r>    4.2990    0.0000 </r>
       <r>    4.4896    0.0000 </r>
       <r>    4.6658    0.0000 </r>
       <r>    4.7094    0.0000 </r>
       <r>    4.9637    0.0000 </r>
       <r>    4.9894    0.0000 </r>
       <r>    5.0665    0.0000 </r>
       <r>    5.1042    0.0000 </r>
       <r>    5.1169    0.0000 </r>
       <r>    5.1643    0.0000 </r>
       <r>    5.1706    0.0000 </r>
       <r>    5.1887    0.0000 </r>
       <r>    5.2026    0.0000 </r>
       <r>    5.2522    0.0000 </r>
       <r>    5.2981    0.0000 </r>
       <r>    5.4926    0.0000 </r>
       <r>    5.6747    0.0000 </r>
       <r>    5.7522    0.0000 </r>
       <r>    5.7991    0.0000 </r>
       <r>    5.8436    0.0000 </r>
       <r>    5.9678    0.0000 </r>
       <r>    5.9775    0.0000 </r>
       <r>    6.0474    0.0000 </r>
       <r>    6.1159    0.0000 </r>
       <r>    6.1620    0.0000 </r>
       <r>    6.1869    0.0000 </r>
       <r>    6.2085    0.0000 </r>
       <r>    6.2364    0.0000 </r>
       <r>    6.2666    0.0000 </r>
       <r>    6.2848    0.0000 </r>
       <r>    6.3030    0.0000 </r>
       <r>    6.3099    0.0000 </r>
       <r>    6.3295    0.0000 </r>
       <r>    6.3741    0.0000 </r>
       <r>    6.4164    0.0000 </r>
       <r>    6.4403    0.0000 </r>
       <r>    6.4662    0.0000 </r>
       <r>    6.4931    0.0000 </r>
       <r>    6.5037    0.0000 </r>
       <r>    6.5137    0.0000 </r>
       <r>    6.5284    0.0000 </r>
       <r>    6.5408    0.0000 </r>
       <r>    6.5719    0.0000 </r>
       <r>    6.6063    0.0000 </r>
       <r>    6.6320    0.0000 </r>
       <r>    6.6373    0.0000 </r>
       <r>    6.6497    0.0000 </r>
       <r>    6.6976    0.0000 </r>
       <r>    6.7028    0.0000 </r>
       <r>    6.7199    0.0000 </r>
       <r>    6.7367    0.0000 </r>
       <r>    6.7477    0.0000 </r>
       <r>    6.7770    0.0000 </r>
       <r>    6.7956    0.0000 </r>
       <r>    6.8407    0.0000 </r>
      </set>
     </set>
    </set>
   </array>
  </eigenvalues>
  <separator name="orbital magnetization" >
   <v name="MAGDIPOLOUT">      0.00000000      0.00000000      0.00000000</v>
  </separator>
  <dos>
   <i name="efermi">     -2.39106747 </i>
   <total>
    <array>
     <dimension dim="1">gridpoints</dimension>
     <dimension dim="2">spin</dimension>
     <field>energy</field>
     <field>total</field>
     <field>integrated</field>
     <set>
      <set comment="spin 1">
       <r>   -23.9481     0.0000     0.0000 </r>
       <r>   -23.8406     0.0000     0.0000 </r>
       <r>   -23.7330     0.0000     0.0000 </r>
       <r>   -23.6255     0.0000     0.0000 </r>
       <r>   -23.5180     0.0000     0.0000 </r>
       <r>   -23.4105     0.0000     0.0000 </r>
       <r>   -23.3030     0.0000     0.0000 </r>
       <r>   -23.1955     0.0000     0.0000 </r>
       <r>   -23.0879     0.0000     0.0000 </r>
       <r>   -22.9804     0.0000     0.0000 </r>
       <r>   -22.8729     0.0000     0.0000 </r>
       <r>   -22.7654     0.0000     0.0000 </r>
       <r>   -22.6579     0.0000     0.0000 </r>
       <r>   -22.5504     0.0000     0.0000 </r>
       <r>   -22.4428    18.6018     2.0000 </r>
       <r>   -22.3353     0.0000     2.0000 </r>
       <r>   -22.2278     0.0000     2.0000 </r>
       <r>   -22.1203     0.0000     2.0000 </r>
       <r>   -22.0128     3.0998     2.3333 </r>
       <r>   -21.9053     0.0000     4.0000 </r>
       <r>   -21.7977    37.1935     7.9989 </r>
       <r>   -21.6902    37.5156    12.0335 </r>
       <r>   -21.5827    18.6018    16.0000 </r>
       <r>   -21.4752    37.1309    19.9922 </r>
       <r>   -21.3677    35.6108    23.8287 </r>
       <r>   -21.2602    62.2427    32.6921 </r>
       <r>   -21.1526     4.1184    34.4428 </r>
       <r>   -21.0451    18.6018    38.0000 </r>
       <r>   -20.9376    62.0757    44.6741 </r>
       <r>   -20.8301    20.6893    50.2244 </r>
       <r>   -20.7226    18.6038    54.0002 </r>
       <r>   -20.6151    18.6018    58.0000 </r>
       <r>   -20.5076    18.6610    60.0064 </r>
       <r>   -20.4000    37.1821    65.9977 </r>
       <r>   -20.2925    41.7105    70.4846 </r>
       <r>   -20.1850    18.6018    74.0000 </r>
       <r>   -20.0775    75.5242    82.1201 </r>
       <r>   -19.9700   264.5252   120.4408 </r>
       <r>   -19.8625    81.4487   132.7571 </r>
       <r>   -19.7549    18.6018   138.0000 </r>
       <r>   -19.6474     0.0000   138.0000 </r>
       <r>   -19.5399     0.0000   138.0000 </r>
       <r>   -19.4324     0.0000   138.0000 </r>
       <r>   -19.3249     0.1725   138.0185 </r>
       <r>   -19.2174     0.0000   140.0000 </r>
       <r>   -19.1098     0.0000   140.0000 </r>
       <r>   -19.0023    19.5825   142.1054 </r>
       <r>   -18.8948     0.0000   144.0000 </r>
       <r>   -18.7873     0.0000   144.0000 </r>
       <r>   -18.6798     0.0000   144.0000 </r>
       <r>   -18.5723     0.0000   144.0000 </r>
       <r>   -18.4647     0.0000   144.0000 </r>
       <r>   -18.3572     0.0000   144.0000 </r>
       <r>   -18.2497     0.0000   144.0000 </r>
       <r>   -18.1422     0.0000   144.0000 </r>
       <r>   -18.0347     0.0000   144.0000 </r>
       <r>   -17.9272     0.0000   144.0000 </r>
       <r>   -17.8196     0.0000   144.0000 </r>
       <r>   -17.7121     0.0000   144.0000 </r>
       <r>   -17.6046     0.0000   144.0000 </r>
       <r>   -17.4971     0.0000   144.0000 </r>
       <r>   -17.3896     0.0000   144.0000 </r>
       <r>   -17.2821     0.0000   144.0000 </r>
       <r>   -17.1745     0.0000   144.0000 </r>
       <r>   -17.0670     0.0000   144.0000 </r>
       <r>   -16.9595     0.0000   144.0000 </r>
       <r>   -16.8520     0.0000   144.0000 </r>
       <r>   -16.7445     0.0000   144.0000 </r>
       <r>   -16.6370     0.0000   144.0000 </r>
       <r>   -16.5295     0.0000   144.0000 </r>
       <r>   -16.4219     0.0000   144.0000 </r>
       <r>   -16.3144     0.0000   144.0000 </r>
       <r>   -16.2069     0.0000   144.0000 </r>
       <r>   -16.0994     0.0000   144.0000 </r>
       <r>   -15.9919     0.0000   144.0000 </r>
       <r>   -15.8844     0.0000   144.0000 </r>
       <r>   -15.7768     0.0000   144.0000 </r>
       <r>   -15.6693     0.0000   144.0000 </r>
       <r>   -15.5618     0.0000   144.0000 </r>
       <r>   -15.4543     0.0000   144.0000 </r>
       <r>   -15.3468     0.0000   144.0000 </r>
       <r>   -15.2393     0.0000   144.0000 </r>
       <r>   -15.1317     0.0000   144.0000 </r>
       <r>   -15.0242     0.0000   144.0000 </r>
       <r>   -14.9167     0.0000   144.0000 </r>
       <r>   -14.8092     0.0000   144.0000 </r>
       <r>   -14.7017     0.0000   144.0000 </r>
       <r>   -14.5942     0.0000   144.0000 </r>
       <r>   -14.4866     0.0000   144.0000 </r>
       <r>   -14.3791     0.0000   144.0000 </r>
       <r>   -14.2716     0.0000   144.0000 </r>
       <r>   -14.1641     0.0000   144.0000 </r>
       <r>   -14.0566     0.0000   144.0000 </r>
       <r>   -13.9491     0.0000   144.0000 </r>
       <r>   -13.8415     0.0000   144.0000 </r>
       <r>   -13.7340     0.0000   144.0000 </r>
       <r>   -13.6265     0.0000   144.0000 </r>
       <r>   -13.5190     0.0000   144.0000 </r>
       <r>   -13.4115     0.0000   144.0000 </r>
       <r>   -13.3040    18.6018   146.0000 </r>
       <r>   -13.1964     0.0000   146.0000 </r>
       <r>   -13.0889     0.0000   146.0000 </r>
       <r>   -12.9814     0.0000   146.0000 </r>
       <r>   -12.8739     0.0000   146.0000 </r>
       <r>   -12.7664     0.0000   146.0000 </r>
       <r>   -12.6589     0.0000   146.0000 </r>
       <r>   -12.5514     0.0000   146.0000 </r>
       <r>   -12.4438     0.0000   146.0000 </r>
       <r>   -12.3363     0.0000   146.0000 </r>
       <r>   -12.2288     2.3461   146.2522 </r>
       <r>   -12.1213     0.0000   148.0000 </r>
       <r>   -12.0138     0.0000   148.0000 </r>
       <r>   -11.9063     0.0000   148.0000 </r>
       <r>   -11.7987     0.0000   148.0000 </r>
       <r>   -11.6912     9.3171   149.0017 </r>
       <r>   -11.5837    18.6018   152.0000 </r>
       <r>   -11.4762     0.0027   152.0003 </r>
       <r>   -11.3687    18.6018   156.0000 </r>
       <r>   -11.2612    18.6018   158.0000 </r>
       <r>   -11.1536    18.6018   160.0000 </r>
       <r>   -11.0461     0.0206   160.0022 </r>
       <r>   -10.9386     0.4400   162.0473 </r>
       <r>   -10.8311     0.0000   164.0000 </r>
       <r>   -10.7236     0.0021   164.0002 </r>
       <r>   -10.6161    31.0086   169.3339 </r>
       <r>   -10.5085    21.2032   174.2797 </r>
       <r>   -10.4010    18.6018   178.0000 </r>
       <r>   -10.2935    18.6018   180.0000 </r>
       <r>   -10.1860    18.6018   182.0000 </r>
       <r>   -10.0785     0.0000   182.0000 </r>
       <r>    -9.9710    17.4690   183.8782 </r>
       <r>    -9.8634     0.0000   184.0000 </r>
       <r>    -9.7559    55.3019   189.9459 </r>
       <r>    -9.6484    17.3584   193.8663 </r>
       <r>    -9.5409    18.6013   196.0000 </r>
       <r>    -9.4334    16.5637   197.7809 </r>
       <r>    -9.3259     0.0000   198.0000 </r>
       <r>    -9.2183    18.5293   199.9922 </r>
       <r>    -9.1108    18.6018   202.0000 </r>
       <r>    -9.0033    18.6018   204.0000 </r>
       <r>    -8.8958     0.0000   204.0000 </r>
       <r>    -8.7883     0.0000   204.0000 </r>
       <r>    -8.6808    18.6843   206.0089 </r>
       <r>    -8.5733    18.6098   210.0009 </r>
       <r>    -8.4657    37.1987   215.9995 </r>
       <r>    -8.3582    33.2794   219.5781 </r>
       <r>    -8.2507    37.7421   226.0579 </r>
       <r>    -8.1432    67.0173   235.2055 </r>
       <r>    -8.0357    52.7545   243.6720 </r>
       <r>    -7.9282    55.8068   250.0001 </r>
       <r>    -7.8206    88.3517   261.4992 </r>
       <r>    -7.7131    42.0331   268.5192 </r>
       <r>    -7.6056    36.6374   273.9391 </r>
       <r>    -7.4981    27.9892   277.0093 </r>
       <r>    -7.3906    25.8457   280.7788 </r>
       <r>    -7.2831    20.6798   284.2234 </r>
       <r>    -7.1755    18.6018   288.0000 </r>
       <r>    -7.0680    18.6018   290.0000 </r>
       <r>    -6.9605     0.0000   290.0000 </r>
       <r>    -6.8530     0.0000   290.0000 </r>
       <r>    -6.7455     0.0000   290.0000 </r>
       <r>    -6.6380     0.6915   290.0744 </r>
       <r>    -6.5304     0.0000   292.0000 </r>
       <r>    -6.4229     0.0466   292.0050 </r>
       <r>    -6.3154     0.0000   294.0000 </r>
       <r>    -6.2079    47.5725   299.1148 </r>
       <r>    -6.1004     2.4390   300.2622 </r>
       <r>    -5.9929    35.0221   305.7654 </r>
       <r>    -5.8853    82.6535   316.8866 </r>
       <r>    -5.7778    61.5785   326.6207 </r>
       <r>    -5.6703    40.2001   332.3222 </r>
       <r>    -5.5628    58.0430   340.2406 </r>
       <r>    -5.4553    18.5726   343.9969 </r>
       <r>    -5.3478     0.0023   344.0003 </r>
       <r>    -5.2402    18.6019   348.0000 </r>
       <r>    -5.1327    54.8361   353.8958 </r>
       <r>    -5.0252    74.1911   361.9767 </r>
       <r>    -4.9177    95.3617   372.2530 </r>
       <r>    -4.8102    37.2091   378.0006 </r>
       <r>    -4.7027    17.5896   381.8912 </r>
       <r>    -4.5951    74.0817   391.9650 </r>
       <r>    -4.4876   120.6226   406.9689 </r>
       <r>    -4.3801   155.2875   426.6960 </r>
       <r>    -4.2726    78.4421   442.4338 </r>
       <r>    -4.1651   128.0107   459.7632 </r>
       <r>    -4.0576    96.4607   470.3711 </r>
       <r>    -3.9501   117.7207   484.6569 </r>
       <r>    -3.8425    87.8582   497.4462 </r>
       <r>    -3.7350    91.0165   509.7858 </r>
       <r>    -3.6275    74.4214   520.0015 </r>
       <r>    -3.5200    25.9233   524.7872 </r>
       <r>    -3.4125     0.0871   526.0094 </r>
       <r>    -3.3050    16.6473   529.7898 </r>
       <r>    -3.1974    57.4016   536.1716 </r>
       <r>    -3.0899    67.7756   545.2871 </r>
       <r>    -2.9824    74.4118   554.0005 </r>
       <r>    -2.8749    57.2542   562.1558 </r>
       <r>    -2.7674    63.2505   572.8005 </r>
       <r>    -2.6599    36.8311   579.9599 </r>
       <r>    -2.5523     0.0000   580.0000 </r>
       <r>    -2.4448     7.5822   580.8152 </r>
       <r>    -2.3373     0.0000   582.0000 </r>
       <r>    -2.2298     0.0000   582.0000 </r>
       <r>    -2.1223     0.0000   582.0000 </r>
       <r>    -2.0148     0.0000   582.0000 </r>
       <r>    -1.9072     0.0000   582.0000 </r>
       <r>    -1.7997     0.0000   582.0000 </r>
       <r>    -1.6922     0.0000   582.0000 </r>
       <r>    -1.5847     0.0000   582.0000 </r>
       <r>    -1.4772     0.0000   582.0000 </r>
       <r>    -1.3697     0.0000   582.0000 </r>
       <r>    -1.2621     0.0000   582.0000 </r>
       <r>    -1.1546     0.0000   582.0000 </r>
       <r>    -1.0471     0.0000   582.0000 </r>
       <r>    -0.9396     0.0000   582.0000 </r>
       <r>    -0.8321     0.0000   582.0000 </r>
       <r>    -0.7246     0.0000   582.0000 </r>
       <r>    -0.6170     0.0000   582.0000 </r>
       <r>    -0.5095     0.0000   582.0000 </r>
       <r>    -0.4020     0.0000   582.0000 </r>
       <r>    -0.2945     0.0000   582.0000 </r>
       <r>    -0.1870     0.0000   582.0000 </r>
       <r>    -0.0795     0.0000   582.0000 </r>
       <r>     0.0280     0.0000   582.0000 </r>
       <r>     0.1356     0.0000   582.0000 </r>
       <r>     0.2431     0.0000   582.0000 </r>
       <r>     0.3506     0.0000   582.0000 </r>
       <r>     0.4581     0.0000   582.0000 </r>
       <r>     0.5656     0.0000   582.0000 </r>
       <r>     0.6731     0.0000   582.0000 </r>
       <r>     0.7807     0.0000   582.0000 </r>
       <r>     0.8882     0.0000   582.0000 </r>
       <r>     0.9957     0.0000   582.0000 </r>
       <r>     1.1032     0.0000   582.0000 </r>
       <r>     1.2107     0.0000   582.0000 </r>
       <r>     1.3182     0.0000   582.0000 </r>
       <r>     1.4258     0.0000   582.0000 </r>
       <r>     1.5333     0.0000   582.0000 </r>
       <r>     1.6408     0.0000   582.0000 </r>
       <r>     1.7483     0.0000   582.0000 </r>
       <r>     1.8558     0.0000   582.0000 </r>
       <r>     1.9633     0.0000   582.0000 </r>
       <r>     2.0709     0.0000   582.0000 </r>
       <r>     2.1784     0.0000   582.0000 </r>
       <r>     2.2859     0.0000   582.0000 </r>
       <r>     2.3934     0.0000   582.0000 </r>
       <r>     2.5009     0.0000   582.0000 </r>
       <r>     2.6084     0.0000   582.0000 </r>
       <r>     2.7160     0.0000   582.0000 </r>
       <r>     2.8235     0.0000   582.0000 </r>
       <r>     2.9310    18.1455   583.9509 </r>
       <r>     3.0385     0.0000   584.0000 </r>
       <r>     3.1460     0.0000   584.0000 </r>
       <r>     3.2535     0.0000   584.0000 </r>
       <r>     3.3611     0.0000   584.0000 </r>
       <r>     3.4686     0.0000   584.0000 </r>
       <r>     3.5761     0.0000   584.0000 </r>
       <r>     3.6836    18.2518   585.9624 </r>
       <r>     3.7911     1.5017   586.1615 </r>
       <r>     3.8986     0.0000   588.0000 </r>
       <r>     4.0061     0.0000   588.0000 </r>
       <r>     4.1137    18.6018   590.0000 </r>
       <r>     4.2212     1.3913   590.1496 </r>
       <r>     4.3287    37.2034   596.0000 </r>
       <r>     4.4362     0.0000   596.0000 </r>
       <r>     4.5437    18.6018   598.0000 </r>
       <r>     4.6512     0.3692   598.0397 </r>
       <r>     4.7588    18.6018   602.0000 </r>
       <r>     4.8663     0.0000   602.0000 </r>
       <r>     4.9738    17.4330   603.8743 </r>
       <r>     5.0813    18.2781   607.9652 </r>
       <r>     5.1888    65.6279   617.0561 </r>
       <r>     5.2963    26.0379   622.7995 </r>
       <r>     5.4039     0.0000   624.0000 </r>
       <r>     5.5114    18.5288   625.9921 </r>
       <r>     5.6189     0.0000   626.0000 </r>
       <r>     5.7264    18.6043   628.0003 </r>
       <r>     5.8339    20.2103   632.1729 </r>
       <r>     5.9414     0.0018   634.0002 </r>
       <r>     6.0490    29.4832   639.1699 </r>
       <r>     6.1565    22.6295   642.4330 </r>
       <r>     6.2640    62.4540   650.7148 </r>
       <r>     6.3715    62.4428   660.7136 </r>
       <r>     6.4790    55.5857   667.9764 </r>
       <r>     6.5865    74.0941   679.9663 </r>
       <r>     6.6941    63.5718   688.8350 </r>
       <r>     6.8016    70.7128   701.6028 </r>
       <r>     6.9091    18.6018   704.0000 </r>
       <r>     7.0166     0.0000   704.0000 </r>
       <r>     7.1241     0.0000   704.0000 </r>
       <r>     7.2316     0.0000   704.0000 </r>
       <r>     7.3392     0.0000   704.0000 </r>
       <r>     7.4467     0.0000   704.0000 </r>
       <r>     7.5542     0.0000   704.0000 </r>
       <r>     7.6617     0.0000   704.0000 </r>
       <r>     7.7692     0.0000   704.0000 </r>
       <r>     7.8767     0.0000   704.0000 </r>
       <r>     7.9842     0.0000   704.0000 </r>
       <r>     8.0918     0.0000   704.0000 </r>
       <r>     8.1993     0.0000   704.0000 </r>
       <r>     8.3068     0.0000   704.0000 </r>
      </set>
     </set>
    </array>
   </total>
  </dos>
 </calculation>
 <structure name="finalpos" >
  <crystal>
   <varray name="basis" >
    <v>      13.72957181      -0.00462456      -0.00141144 </v>
    <v>      -6.86873914      11.89091482       0.00181973 </v>
    <v>      -0.00151065       0.00130727      14.89037843 </v>
   </varray>
   <i name="volume">   2430.48798979 </i>
   <varray name="rec_basis" >
    <v>       0.07284966       0.04208131       0.00000370 </v>
    <v>       0.00002833       0.08411419      -0.00000738 </v>
    <v>       0.00000690      -0.00000629       0.06715746 </v>
   </varray>
  </crystal>
  <varray name="positions" >
   <v>       0.57249372       0.67554592       0.56728954 </v>
   <v>       0.39321313       0.60545046       0.44262211 </v>
   <v>       0.43476667       0.69725171       0.44065098 </v>
   <v>       0.42637827       0.57394246       0.39006743 </v>
   <v>       0.30209358       0.56867927       0.43618297 </v>
   <v>       0.01522361       0.33450517       0.83929938 </v>
   <v>       0.20548918       0.41445092       0.54616531 </v>
   <v>       0.54940271       0.09589788       0.20303674 </v>
   <v>       0.87731309       0.76163771       0.86829094 </v>
   <v>       0.44464973       0.55087847       0.81729504 </v>
   <v>       0.12341309       0.88031015       0.13085384 </v>
   <v>       0.09053327       0.54739261       0.80217595 </v>
   <v>       0.41346931       0.20738614       0.46027522 </v>
   <v>       0.76449373       0.88101314       0.14070085 </v>
   <v>       0.22035092       0.78184405       0.53718805 </v>
   <v>       0.90359077       0.09935682       0.13013388 </v>
   <v>       0.23674387       0.12034119       0.86710643 </v>
   <v>       0.87834791       0.44024690       0.45533002 </v>
   <v>       0.43904508       0.87095724       0.54594460 </v>
   <v>       0.98530311       0.31624797       0.16849638 </v>
   <v>       0.65322161       0.01563258       0.51026184 </v>
   <v>       0.00830725       0.65431473       0.49709153 </v>
   <v>       0.33653545       0.31529162       0.16488467 </v>
   <v>       0.98725663       0.66565847       0.16392434 </v>
   <v>       0.36031160       0.36069915       0.50226894 </v>
   <v>       0.68694157       0.01769043       0.17331591 </v>
   <v>       0.66129774       0.98303894       0.84416018 </v>
   <v>       0.99785478       0.34431523       0.50255393 </v>
   <v>       0.78328619       0.22234520       0.46384235 </v>
   <v>       0.33706553       0.02017229       0.16377076 </v>
   <v>       0.91029598       0.45313972       0.20404400 </v>
   <v>       0.30928733       0.33158303       0.82944381 </v>
   <v>       0.44883911       0.90505451       0.80463971 </v>
   <v>       0.07143340       0.66316939       0.66615782 </v>
   <v>       0.66267684       0.07175620       0.33832304 </v>
   <v>       0.99849202       0.74038115       0.99932319 </v>
   <v>       0.59542187       0.93861405       0.67523249 </v>
   <v>       0.93083883       0.59944377       0.33121548 </v>
   <v>       0.25992491       0.26229139       0.99865645 </v>
   <v>       0.40654721       0.34198952       0.33323102 </v>
   <v>       0.79099343       0.57074199       0.46637365 </v>
   <v>       0.74202198       0.99931438       0.00727263 </v>
   <v>       0.58785116       0.80379277       0.54187486 </v>
   <v>       0.57911399       0.64903966       0.67834841 </v>
   <v>       0.26142421       0.00111730       0.99809568 </v>
   <v>       0.05921947       0.40197401       0.67091894 </v>
   <v>       0.40147092       0.06384577       0.33319116 </v>
   <v>       0.35390664       0.42835769       0.66930321 </v>
   <v>       0.74511143       0.74539440       0.00542472 </v>
   <v>       0.55008144       0.45108596       0.19851417 </v>
   <v>       0.87625952       0.12033260       0.87180801 </v>
   <v>       0.33405265       0.92796765       0.66802737 </v>
   <v>       0.57260123       0.42245846       0.45405566 </v>
   <v>       0.67020305       0.58571549       0.33262247 </v>
   <v>       0.93463350       0.33343675       0.33477763 </v>
   <v>       0.34850953       0.99755163       0.50113946 </v>
   <v>       0.31212536       0.98334595       0.83152756 </v>
   <v>       0.90453281       0.80140056       0.12913994 </v>
   <v>       0.23068968       0.76622109       0.79081438 </v>
   <v>       0.12280668       0.24026629       0.13410507 </v>
   <v>       0.56357888       0.14002164       0.45702532 </v>
   <v>       0.22822627       0.46605691       0.78555688 </v>
   <v>       0.20026648       0.09964579       0.12193778 </v>
   <v>       0.99949159       0.25835639       0.00366012 </v>
   <v>       0.09648652       0.90196592       0.87651758 </v>
   <v>       0.79918141       0.90195239       0.87869365 </v>
   <v>       0.41816122       0.57514010       0.53187408 </v>
   <v>       0.53233970       0.76945778       0.79406237 </v>
   <v>       0.77021810       0.53114493       0.20474480 </v>
   <v>       0.13370985       0.56179636       0.54427978 </v>
   <v>       0.46764156       0.23306995       0.21727645 </v>
   <v>       0.64486158       0.63701216       0.49716759 </v>
   <v>       0.76879166       0.23391349       0.21498261 </v>
   <v>       0.66071879       0.68368193       0.84410141 </v>
   <v>       0.01442091       0.68622429       0.83142245 </v>
   <v>       0.09541697       0.19738627       0.87701459 </v>
   <v>       0.68711231       0.66624328       0.16948203 </v>
   <v>       0.55982270       0.89780245       0.77848325 </v>
   <v>       0.99692848       0.77280202       0.89431547 </v>
   <v>       0.89847524       0.33348015       0.23064717 </v>
   <v>       0.77446247       0.99957663       0.11228879 </v>
   <v>       0.09823209       0.43169098       0.56700340 </v>
   <v>       0.33390539       0.44444096       0.77607744 </v>
   <v>       0.00297083       0.77208422       0.10516433 </v>
   <v>       0.33147853       0.89500171       0.77327393 </v>
   <v>       0.23046851       0.00062283       0.10349400 </v>
   <v>       0.23010828       0.22884291       0.10416617 </v>
   <v>       0.09867356       0.43756243       0.77484157 </v>
   <v>       0.66443118       0.11143867       0.44187277 </v>
   <v>       0.00229808       0.22759038       0.10860770 </v>
   <v>       0.89810082       0.33510410       0.43830630 </v>
   <v>       0.33634796       0.89507802       0.56355796 </v>
   <v>       0.90172665       0.56656123       0.43673228 </v>
   <v>       0.10210581       0.66642332       0.77231798 </v>
   <v>       0.33141157       0.43864342       0.56471271 </v>
   <v>       0.89899160       0.56239523       0.22663546 </v>
   <v>       0.77596409       0.77363943       0.11081701 </v>
   <v>       0.66954233       0.55534451       0.43873099 </v>
   <v>       0.44007807       0.33367042       0.43721888 </v>
   <v>       0.10797783       0.66499368       0.56194015 </v>
   <v>       0.22586603       0.00098516       0.89383365 </v>
   <v>       0.66999627       0.55848256       0.22696865 </v>
   <v>       0.55599961       0.66479239       0.78099630 </v>
   <v>       0.99676137       0.22722078       0.89816608 </v>
   <v>       0.77034341       0.77347561       0.89915792 </v>
   <v>       0.66750580       0.10532450       0.23285158 </v>
   <v>       0.22503833       0.22813831       0.89386923 </v>
   <v>       0.44015396       0.33469779       0.22895304 </v>
   <v>       0.76940780       0.00037344       0.90080033 </v>
   <v>       0.56951514       0.90559986       0.56911658 </v>
   <v>       0.43888189       0.10349140       0.22965273 </v>
   <v>       0.43249492       0.10224134       0.43778259 </v>
  </varray>
 </structure>
</modeling>
