unknown system                          
           1
    13.729572   -0.004625   -0.001411
    -6.868739   11.890915    0.001820
    -0.001511    0.001307   14.890378
   Al   C    H    O    Si
   1   1   3  72  35
Direct configuration=     1
   0.57249372  0.67554592  0.56728954
   0.39321313  0.60545046  0.44262211
   0.43476667  0.69725171  0.44065098
   0.42637827  0.57394246  0.39006743
   0.30209358  0.56867927  0.43618297
   0.01522361  0.33450517  0.83929938
   0.20548918  0.41445092  0.54616531
   0.54940271  0.09589788  0.20303674
   0.87731309  0.76163771  0.86829094
   0.44464973  0.55087847  0.81729504
   0.12341309  0.88031015  0.13085384
   0.09053327  0.54739261  0.80217595
   0.41346931  0.20738614  0.46027522
   0.76449373  0.88101314  0.14070085
   0.22035092  0.78184405  0.53718805
   0.90359077  0.09935682  0.13013388
   0.23674387  0.12034119  0.86710643
   0.87834791  0.44024690  0.45533002
   0.43904508  0.87095724  0.54594460
   0.98530311  0.31624797  0.16849638
   0.65322161  0.01563258  0.51026184
   0.00830725  0.65431473  0.49709153
   0.33653545  0.31529162  0.16488467
   0.98725663  0.66565847  0.16392434
   0.36031160  0.36069915  0.50226894
   0.68694157  0.01769043  0.17331591
   0.66129774  0.98303894  0.84416018
   0.99785478  0.34431523  0.50255393
   0.78328619  0.22234520  0.46384235
   0.33706553  0.02017229  0.16377076
   0.91029598  0.45313972  0.20404400
   0.30928733  0.33158303  0.82944381
   0.44883911  0.90505451  0.80463971
   0.07143340  0.66316939  0.66615782
   0.66267684  0.07175620  0.33832304
   0.99849202  0.74038115  0.99932319
   0.59542187  0.93861405  0.67523249
   0.93083883  0.59944377  0.33121548
   0.25992491  0.26229139  0.99865645
   0.40654721  0.34198952  0.33323102
   0.79099343  0.57074199  0.46637365
   0.74202198  0.99931438  0.00727263
   0.58785116  0.80379277  0.54187486
   0.57911399  0.64903966  0.67834841
   0.26142421  0.00111730  0.99809568
   0.05921947  0.40197401  0.67091894
   0.40147092  0.06384577  0.33319116
   0.35390664  0.42835769  0.66930321
   0.74511143  0.74539440  0.00542472
   0.55008144  0.45108596  0.19851417
   0.87625952  0.12033260  0.87180801
   0.33405265  0.92796765  0.66802737
   0.57260123  0.42245846  0.45405566
   0.67020305  0.58571549  0.33262247
   0.93463350  0.33343675  0.33477763
   0.34850953  0.99755163  0.50113946
   0.31212536  0.98334595  0.83152756
   0.90453281  0.80140056  0.12913994
   0.23068968  0.76622109  0.79081438
   0.12280668  0.24026629  0.13410507
   0.56357888  0.14002164  0.45702532
   0.22822627  0.46605691  0.78555688
   0.20026648  0.09964579  0.12193778
   0.99949159  0.25835639  0.00366012
   0.09648652  0.90196592  0.87651758
   0.79918141  0.90195239  0.87869365
   0.41816122  0.57514010  0.53187408
   0.53233970  0.76945778  0.79406237
   0.77021810  0.53114493  0.20474480
   0.13370985  0.56179636  0.54427978
   0.46764156  0.23306995  0.21727645
   0.64486158  0.63701216  0.49716759
   0.76879166  0.23391349  0.21498261
   0.66071879  0.68368193  0.84410141
   0.01442091  0.68622429  0.83142245
   0.09541697  0.19738627  0.87701459
   0.68711231  0.66624328  0.16948203
   0.55982270  0.89780245  0.77848325
   0.99692848  0.77280202  0.89431547
   0.89847524  0.33348015  0.23064717
   0.77446247  0.99957663  0.11228879
   0.09823209  0.43169098  0.56700340
   0.33390539  0.44444096  0.77607744
   0.00297083  0.77208422  0.10516433
   0.33147853  0.89500171  0.77327393
   0.23046851  0.00062283  0.10349400
   0.23010828  0.22884291  0.10416617
   0.09867356  0.43756243  0.77484157
   0.66443118  0.11143867  0.44187277
   0.00229808  0.22759038  0.10860770
   0.89810082  0.33510410  0.43830630
   0.33634796  0.89507802  0.56355796
   0.90172665  0.56656123  0.43673228
   0.10210581  0.66642332  0.77231798
   0.33141157  0.43864342  0.56471271
   0.89899160  0.56239523  0.22663546
   0.77596409  0.77363943  0.11081701
   0.66954233  0.55534451  0.43873099
   0.44007807  0.33367042  0.43721888
   0.10797783  0.66499368  0.56194015
   0.22586603  0.00098516  0.89383365
   0.66999627  0.55848256  0.22696865
   0.55599961  0.66479239  0.78099630
   0.99676137  0.22722078  0.89816608
   0.77034341  0.77347561  0.89915792
   0.66750580  0.10532450  0.23285158
   0.22503833  0.22813831  0.89386923
   0.44015396  0.33469779  0.22895304
   0.76940780  0.00037344  0.90080033
   0.56951514  0.90559986  0.56911658
   0.43888189  0.10349140  0.22965273
   0.43249492  0.10224134  0.43778259
