 running on   48 total cores
 distrk:  each k-point on   48 cores,    1 groups
 distr:  one band on    6 cores,    8 groups
 using from now: INCAR     
 vasp.5.4.1 05Feb16 (build Apr 25 2018 11:37:45) complex                        
  
 POSCAR found :  5 types and     112 ions
 LDA part: xc-table for Pade appr. of Perdew
 POSCAR found :  5 types and     112 ions
 POSCAR, INCAR and KPOINTS ok, starting setup
 WARNING: small aliasing (wrap around) errors must be expected
 FFT: planning ...
 WAVECAR not read
 WARNING: random wavefunctions but no delay for mixing, default for NELMDL
 entering main loop
       N       E                     dE             d eps       ncg     rms          rms(c)
DAV:   1     0.449979893646E+04    0.44998E+04   -0.24415E+05   744   0.116E+03
DAV:   2    -0.403414197055E+03   -0.49032E+04   -0.47987E+04   880   0.327E+02
DAV:   3    -0.975756894213E+03   -0.57234E+03   -0.57022E+03   816   0.121E+02
DAV:   4    -0.989181851939E+03   -0.13425E+02   -0.13387E+02   824   0.200E+01
DAV:   5    -0.989601023549E+03   -0.41917E+00   -0.41872E+00   832   0.320E+00    0.856E+01
DAV:   6    -0.873707905503E+03    0.11589E+03   -0.50689E+02   800   0.353E+01    0.396E+01
DAV:   7    -0.873193602666E+03    0.51430E+00   -0.16353E+01   912   0.600E+00    0.150E+01
DAV:   8    -0.872712499700E+03    0.48110E+00   -0.11534E+00   824   0.231E+00    0.600E+00
DAV:   9    -0.872569762414E+03    0.14274E+00   -0.44435E-01   824   0.144E+00    0.102E+00
DAV:  10    -0.872570079145E+03   -0.31673E-03   -0.86082E-02   808   0.621E-01    0.681E-01
DAV:  11    -0.872570737033E+03   -0.65789E-03   -0.21106E-02   784   0.301E-01    0.298E-01
DAV:  12    -0.872577059840E+03   -0.63228E-02   -0.72396E-03   792   0.215E-01    0.150E-01
DAV:  13    -0.872588574508E+03   -0.11515E-01   -0.44314E-03   808   0.183E-01    0.177E-01
DAV:  14    -0.872598104747E+03   -0.95302E-02   -0.24136E-03   808   0.117E-01    0.563E-02
DAV:  15    -0.872600062918E+03   -0.19582E-02   -0.45636E-04   824   0.489E-02    0.546E-02
DAV:  16    -0.872600620196E+03   -0.55728E-03   -0.14064E-04   824   0.269E-02    0.380E-02
DAV:  17    -0.872600923196E+03   -0.30300E-03   -0.85892E-05   800   0.174E-02    0.181E-02
DAV:  18    -0.872601257100E+03   -0.33390E-03   -0.26701E-05   784   0.935E-03    0.953E-03
DAV:  19    -0.872601296365E+03   -0.39265E-04   -0.88319E-06   744   0.694E-03    0.746E-03
DAV:  20    -0.872601310751E+03   -0.14386E-04   -0.32629E-06   640   0.373E-03    0.404E-03
DAV:  21    -0.872601328552E+03   -0.17801E-04   -0.17765E-06   584   0.239E-03    0.167E-03
DAV:  22    -0.872601332839E+03   -0.42866E-05   -0.10312E-06   528   0.207E-03    0.124E-03
DAV:  23    -0.872601333249E+03   -0.40984E-06   -0.17646E-07   536   0.845E-04
   1 F= -.87260133E+03 E0= -.87260133E+03  d E =-.872601E+03
 BRION: g(F)=  0.449E-04 g(S)=  0.000E+00
 bond charge predicted
       N       E                     dE             d eps       ncg     rms          rms(c)
DAV:   1    -0.872601356456E+03   -0.23617E-04   -0.30007E-03   752   0.103E-01    0.209E-02
DAV:   2    -0.872601361377E+03   -0.49212E-05   -0.69743E-05   808   0.154E-02    0.875E-03
DAV:   3    -0.872601360063E+03    0.13141E-05   -0.19658E-06   552   0.399E-03    0.480E-03
DAV:   4    -0.872601359648E+03    0.41450E-06   -0.28269E-06   664   0.438E-03
   2 F= -.87260136E+03 E0= -.87260136E+03  d E =-.263996E-04
 BRION: g(F)=  0.120E-03 g(S)=  0.000E+00 retain N=  1 mean eig= 0.23
 eig:   0.235
 bond charge predicted
       N       E                     dE             d eps       ncg     rms          rms(c)
DAV:   1    -0.872601377759E+03   -0.17696E-04   -0.94820E-04   752   0.594E-02    0.147E-02
DAV:   2    -0.872601379277E+03   -0.15174E-05   -0.27709E-05   824   0.999E-03    0.528E-03
DAV:   3    -0.872601378616E+03    0.66089E-06   -0.10939E-06   512   0.292E-03
   3 F= -.87260138E+03 E0= -.87260138E+03  d E =-.189673E-04
 BRION: g(F)=  0.360E-04 g(S)=  0.000E+00 retain N=  1 mean eig= 0.25
 eig:   0.252
 bond charge predicted
       N       E                     dE             d eps       ncg     rms          rms(c)
DAV:   1    -0.872601410962E+03   -0.31686E-04   -0.13200E-03   736   0.655E-02    0.104E-02
DAV:   2    -0.872601412806E+03   -0.18434E-05   -0.23165E-05   800   0.866E-03    0.601E-03
DAV:   3    -0.872601412543E+03    0.26251E-06   -0.50821E-07   504   0.185E-03
   4 F= -.87260141E+03 E0= -.87260141E+03  d E =-.339276E-04
 BRION: g(F)=  0.393E-04 g(S)=  0.000E+00 retain N=  2 mean eig= 0.29
 eig:   0.246  0.343
 bond charge predicted
       N       E                     dE             d eps       ncg     rms          rms(c)
DAV:   1    -0.872601424949E+03   -0.12143E-04   -0.19393E-04   736   0.261E-02    0.508E-03
DAV:   2    -0.872601425257E+03   -0.30830E-06   -0.43054E-06   712   0.386E-03
   5 F= -.87260143E+03 E0= -.87260143E+03  d E =-.127142E-04
 BRION: g(F)=  0.343E-04 g(S)=  0.000E+00 retain N=  1 mean eig= 0.37
 eig:   0.371
 bond charge predicted
       N       E                     dE             d eps       ncg     rms          rms(c)
DAV:   1    -0.872601458447E+03   -0.33498E-04   -0.12317E-03   736   0.620E-02    0.104E-02
DAV:   2    -0.872601459936E+03   -0.14882E-05   -0.18383E-05   768   0.752E-03    0.594E-03
DAV:   3    -0.872601459767E+03    0.16909E-06   -0.42334E-07   504   0.164E-03
   6 F= -.87260146E+03 E0= -.87260146E+03  d E =-.345092E-04
 BRION: g(F)=  0.370E-04 g(S)=  0.000E+00 retain N=  2 mean eig= 0.18
 eig:   0.341  0.010
 bond charge predicted
       N       E                     dE             d eps       ncg     rms          rms(c)
DAV:   1    -0.872601469790E+03   -0.98539E-05   -0.99016E-05   712   0.180E-02    0.332E-03
DAV:   2    -0.872601469905E+03   -0.11586E-06   -0.16534E-06   496   0.245E-03
   7 F= -.87260147E+03 E0= -.87260147E+03  d E =-.101389E-04
 BRION: g(F)=  0.343E-04 g(S)=  0.000E+00 retain N=  1 mean eig= 0.38
 eig:   0.382
 bond charge predicted
       N       E                     dE             d eps       ncg     rms          rms(c)
DAV:   1    -0.872601506127E+03   -0.36337E-04   -0.14293E-03   720   0.663E-02    0.104E-02
DAV:   2    -0.872601507834E+03   -0.17077E-05   -0.20471E-05   768   0.781E-03    0.618E-03
DAV:   3    -0.872601507677E+03    0.15681E-06   -0.45362E-07   488   0.163E-03
   8 F= -.87260151E+03 E0= -.87260151E+03  d E =-.377720E-04
 BRION: g(F)=  0.352E-04 g(S)=  0.000E+00 retain N=  2 mean eig= 0.25
 eig:   0.385  0.113
 bond charge predicted
       N       E                     dE             d eps       ncg     rms          rms(c)
DAV:   1    -0.872601513312E+03   -0.54781E-05   -0.28999E-05   672   0.960E-03    0.174E-03
DAV:   2    -0.872601513338E+03   -0.26106E-07   -0.41665E-07   400   0.128E-03
   9 F= -.87260151E+03 E0= -.87260151E+03  d E =-.566104E-05
 BRION: g(F)=  0.345E-04 g(S)=  0.000E+00 retain N=  3 mean eig= 2.46
 eig:   6.862  0.385  0.147
 bond charge predicted
       N       E                     dE             d eps       ncg     rms          rms(c)
DAV:   1    -0.872601515282E+03   -0.19698E-05   -0.36275E-06   584   0.339E-03    0.883E-04
DAV:   2    -0.872601515289E+03   -0.68903E-08   -0.77026E-08   400   0.559E-04
  10 F= -.87260152E+03 E0= -.87260152E+03  d E =-.195055E-05
 BRION: g(F)=  0.347E-04 g(S)=  0.000E+00 retain N=  2 mean eig= 0.21
 eig:   0.304  0.115
 bond charge predicted
       N       E                     dE             d eps       ncg     rms          rms(c)
DAV:   1    -0.872601545866E+03   -0.30583E-04   -0.10660E-03   720   0.584E-02    0.919E-03
DAV:   2    -0.872601547234E+03   -0.13687E-05   -0.16399E-05   784   0.717E-03    0.502E-03
DAV:   3    -0.872601547096E+03    0.13826E-06   -0.35788E-07   480   0.151E-03
  11 F= -.87260155E+03 E0= -.87260155E+03  d E =-.318069E-04
 BRION: g(F)=  0.387E-04 g(S)=  0.000E+00 retain N=  3 mean eig= 1.50
 eig:   3.910  0.508  0.097
 bond charge predicted
       N       E                     dE             d eps       ncg     rms          rms(c)
DAV:   1    -0.872601545240E+03    0.19944E-05   -0.20644E-04   720   0.278E-02    0.437E-03
DAV:   2    -0.872601545566E+03   -0.32644E-06   -0.44526E-06   720   0.386E-03
  12 F= -.87260155E+03 E0= -.87260155E+03  d E =0.152973E-05
 BRION: g(F)=  0.408E-04 g(S)=  0.000E+00 retain N=  3 mean eig= 2.67
 eig:   7.271  0.175  0.577
 bond charge predicted
       N       E                     dE             d eps       ncg     rms          rms(c)
DAV:   1    -0.872601545600E+03   -0.36006E-06   -0.27304E-04   720   0.317E-02    0.397E-03
DAV:   2    -0.872601546023E+03   -0.42301E-06   -0.55186E-06   736   0.417E-03
  13 F= -.87260155E+03 E0= -.87260155E+03  d E =-.456632E-06
 BRION: g(F)=  0.382E-04 g(S)=  0.000E+00 retain N=  3 mean eig= 1.23
 eig:   2.924  0.536  0.244
 bond charge predicted
       N       E                     dE             d eps       ncg     rms          rms(c)
DAV:   1    -0.872601549768E+03   -0.41686E-05   -0.14971E-03   720   0.745E-02    0.940E-03
DAV:   2    -0.872601552599E+03   -0.28307E-05   -0.31615E-05   808   0.977E-03    0.333E-03
DAV:   3    -0.872601552414E+03    0.18565E-06   -0.54307E-07   456   0.178E-03
  14 F= -.87260155E+03 E0= -.87260155E+03  d E =-.639068E-05
 BRION: g(F)=  0.357E-04 g(S)=  0.000E+00 retain N=  3 mean eig= 1.03
 eig:   2.354  0.153  0.576
 bond charge predicted
       N       E                     dE             d eps       ncg     rms          rms(c)
DAV:   1    -0.872601583526E+03   -0.30927E-04   -0.12290E-03   720   0.631E-02    0.104E-02
DAV:   2    -0.872601585215E+03   -0.16889E-05   -0.20911E-05   784   0.820E-03    0.541E-03
DAV:   3    -0.872601584997E+03    0.21779E-06   -0.46590E-07   496   0.179E-03
  15 F= -.87260158E+03 E0= -.87260158E+03  d E =-.325835E-04
 BRION: g(F)=  0.393E-04 g(S)=  0.000E+00 retain N=  4 mean eig= 0.89
 eig:   2.656  0.534  0.188  0.188
 bond charge predicted
       N       E                     dE             d eps       ncg     rms          rms(c)
DAV:   1    -0.872601596375E+03   -0.11161E-04   -0.19238E-04   720   0.262E-02    0.547E-03
DAV:   2    -0.872601596679E+03   -0.30333E-06   -0.43146E-06   696   0.386E-03
  16 F= -.87260160E+03 E0= -.87260160E+03  d E =-.116816E-04
 BRION: g(F)=  0.341E-04 g(S)=  0.000E+00 retain N=  1 mean eig= 0.35
 eig:   0.349
 bond charge predicted
       N       E                     dE             d eps       ncg     rms          rms(c)
DAV:   1    -0.872601630083E+03   -0.33708E-04   -0.11214E-03   720   0.583E-02    0.992E-03
DAV:   2    -0.872601631370E+03   -0.12862E-05   -0.16185E-05   768   0.705E-03    0.582E-03
DAV:   3    -0.872601631220E+03    0.14990E-06   -0.41368E-07   496   0.173E-03
  17 F= -.87260163E+03 E0= -.87260163E+03  d E =-.345410E-04
 BRION: g(F)=  0.362E-04 g(S)=  0.000E+00 retain N=  2 mean eig= 0.23
 eig:   0.354  0.113
 bond charge predicted
       N       E                     dE             d eps       ncg     rms          rms(c)
DAV:   1    -0.872601637485E+03   -0.61157E-05   -0.43642E-05   672   0.121E-02    0.227E-03
DAV:   2    -0.872601637524E+03   -0.39152E-07   -0.74316E-07   376   0.171E-03
  18 F= -.87260164E+03 E0= -.87260164E+03  d E =-.630470E-05
 BRION: g(F)=  0.347E-04 g(S)=  0.000E+00 retain N=  1 mean eig= 0.35
 eig:   0.348
 bond charge predicted
       N       E                     dE             d eps       ncg     rms          rms(c)
DAV:   1    -0.872601675458E+03   -0.37973E-04   -0.14881E-03   728   0.675E-02    0.104E-02
DAV:   2    -0.872601677230E+03   -0.17721E-05   -0.21185E-05   768   0.793E-03    0.620E-03
DAV:   3    -0.872601677065E+03    0.16512E-06   -0.46158E-07   496   0.172E-03
  19 F= -.87260168E+03 E0= -.87260168E+03  d E =-.395408E-04
 BRION: g(F)=  0.352E-04 g(S)=  0.000E+00 retain N=  2 mean eig= 0.26
 eig:   0.481  0.045
 bond charge predicted
       N       E                     dE             d eps       ncg     rms          rms(c)
DAV:   1    -0.872601685251E+03   -0.80206E-05   -0.68612E-05   672   0.146E-02    0.256E-03
DAV:   2    -0.872601685321E+03   -0.70206E-07   -0.96576E-07   408   0.188E-03
  20 F= -.87260169E+03 E0= -.87260169E+03  d E =-.825595E-05
 BRION: g(F)=  0.341E-04 g(S)=  0.000E+00 retain N=  2 mean eig= 1.00
 eig:   0.182  1.824
 bond charge predicted
       N       E                     dE             d eps       ncg     rms          rms(c)
DAV:   1    -0.872601726490E+03   -0.41239E-04   -0.16257E-03   712   0.696E-02    0.110E-02
DAV:   2    -0.872601728386E+03   -0.18965E-05   -0.22371E-05   768   0.807E-03    0.666E-03
DAV:   3    -0.872601728228E+03    0.15798E-06   -0.50570E-07   496   0.177E-03
  21 F= -.87260173E+03 E0= -.87260173E+03  d E =-.429070E-04
 BRION: g(F)=  0.352E-04 g(S)=  0.000E+00 retain N=  3 mean eig= 2.13
 eig:   5.788  0.091  0.521
 bond charge predicted
       N       E                     dE             d eps       ncg     rms          rms(c)
DAV:   1    -0.872601763812E+03   -0.35426E-04   -0.12117E-03   712   0.599E-02    0.906E-03
DAV:   2    -0.872601765189E+03   -0.13769E-05   -0.16103E-05   768   0.684E-03    0.536E-03
DAV:   3    -0.872601765114E+03    0.75168E-07   -0.35971E-07   464   0.131E-03
  22 F= -.87260177E+03 E0= -.87260177E+03  d E =-.368857E-04
 BRION: g(F)=  0.353E-04 g(S)=  0.000E+00 retain N=  3 mean eig= 0.70
 eig:   0.482  0.482  1.150
 bond charge predicted
       N       E                     dE             d eps       ncg     rms          rms(c)
DAV:   1    -0.872601723846E+03    0.41343E-04   -0.14303E-03   704   0.653E-02    0.962E-03
DAV:   2    -0.872601725540E+03   -0.16945E-05   -0.19992E-05   768   0.768E-03    0.593E-03
DAV:   3    -0.872601725378E+03    0.16201E-06   -0.41466E-07   472   0.158E-03
  23 F= -.87260173E+03 E0= -.87260173E+03  d E =0.397358E-04
 BRION: g(F)=  0.351E-04 g(S)=  0.000E+00 retain N=  2 mean eig= 1.78
 eig:   0.491  3.068
 bond charge predicted
       N       E                     dE             d eps       ncg     rms          rms(c)
DAV:   1    -0.872601768318E+03   -0.42778E-04   -0.20334E-03   704   0.786E-02    0.120E-02
DAV:   2    -0.872601770795E+03   -0.24772E-05   -0.29529E-05   768   0.946E-03    0.700E-03
DAV:   3    -0.872601770522E+03    0.27303E-06   -0.64702E-07   520   0.199E-03
  24 F= -.87260177E+03 E0= -.87260177E+03  d E =-.451442E-04
 BRION: g(F)=  0.380E-04 g(S)=  0.000E+00 retain N=  2 mean eig= 0.30
 eig:   0.360  0.233
 bond charge predicted
       N       E                     dE             d eps       ncg     rms          rms(c)
DAV:   1    -0.872601793431E+03   -0.22635E-04   -0.45978E-04   712   0.373E-02    0.648E-03
DAV:   2    -0.872601793960E+03   -0.52914E-06   -0.68682E-06   768   0.462E-03
  25 F= -.87260179E+03 E0= -.87260179E+03  d E =-.234376E-04
 BRION: g(F)=  0.338E-04 g(S)=  0.000E+00 retain N=  3 mean eig= 2.03
 eig:   2.664  2.664  0.769
 bond charge predicted
       N       E                     dE             d eps       ncg     rms          rms(c)
DAV:   1    -0.872601905105E+03   -0.11167E-03   -0.13720E-02   704   0.200E-01    0.322E-02
DAV:   2    -0.872601920138E+03   -0.15033E-04   -0.17984E-04   768   0.229E-02    0.194E-02
DAV:   3    -0.872601918836E+03    0.13017E-05   -0.46828E-06   720   0.480E-03    0.776E-03
DAV:   4    -0.872601918913E+03   -0.77009E-07   -0.19828E-06   544   0.296E-03
  26 F= -.87260192E+03 E0= -.87260192E+03  d E =-.124953E-03
 BRION: g(F)=  0.388E-04 g(S)=  0.000E+00 retain N=  4 mean eig= 2.48
 eig:   6.905  0.814  1.108  1.108
 bond charge predicted
       N       E                     dE             d eps       ncg     rms          rms(c)
DAV:   1    -0.872602008794E+03   -0.89958E-04   -0.79332E-03   704   0.151E-01    0.241E-02
DAV:   2    -0.872602017822E+03   -0.90279E-05   -0.10569E-04   768   0.175E-02    0.144E-02
DAV:   3    -0.872602017268E+03    0.55380E-06   -0.24828E-06   632   0.356E-03
  27 F= -.87260202E+03 E0= -.87260202E+03  d E =-.983547E-04
 BRION: g(F)=  0.350E-04 g(S)=  0.000E+00 retain N=  3 mean eig= 1.54
 eig:   4.100  0.424  0.104
 bond charge predicted
       N       E                     dE             d eps       ncg     rms          rms(c)
DAV:   1    -0.872601798317E+03    0.21950E-03   -0.30186E-02   704   0.296E-01    0.453E-02
DAV:   2    -0.872601832373E+03   -0.34056E-04   -0.40046E-04   768   0.341E-02    0.278E-02
DAV:   3    -0.872601829465E+03    0.29078E-05   -0.99050E-06   760   0.707E-03    0.113E-02
DAV:   4    -0.872601829605E+03   -0.13960E-06   -0.45875E-06   720   0.432E-03
  28 F= -.87260183E+03 E0= -.87260183E+03  d E =0.187663E-03
 BRION: g(F)=  0.423E-04 g(S)=  0.000E+00 retain N=  4 mean eig= 2.30
 eig:   5.630  2.909  0.565  0.084
 bond charge predicted
       N       E                     dE             d eps       ncg     rms          rms(c)
DAV:   1    -0.872601853010E+03   -0.23545E-04   -0.42169E-04   704   0.332E-02    0.613E-03
DAV:   2    -0.872601853318E+03   -0.30814E-06   -0.48014E-06   672   0.380E-03
  29 F= -.87260185E+03 E0= -.87260185E+03  d E =-.237133E-04
 BRION: g(F)=  0.401E-04 g(S)=  0.000E+00 retain N=  5 mean eig= 2.11
 eig:   5.742  2.991  1.159  0.543  0.107
 bond charge predicted
       N       E                     dE             d eps       ncg     rms          rms(c)
DAV:   1    -0.872601903107E+03   -0.50097E-04   -0.14882E-03   704   0.537E-02    0.141E-02
DAV:   2    -0.872601903994E+03   -0.88656E-06   -0.14304E-05   776   0.602E-03    0.817E-03
DAV:   3    -0.872601903752E+03    0.24169E-06   -0.67777E-07   544   0.215E-03
  30 F= -.87260190E+03 E0= -.87260190E+03  d E =-.504340E-04
 BRION: g(F)=  0.384E-04 g(S)=  0.000E+00 retain N=  6 mean eig= 2.60
 eig:   5.870  5.870  2.412  0.255  0.584  0.584
 bond charge predicted
       N       E                     dE             d eps       ncg     rms          rms(c)
DAV:   1    -0.872601911382E+03   -0.73884E-05   -0.17059E-04   704   0.251E-02    0.355E-03
DAV:   2    -0.872601911663E+03   -0.28049E-06   -0.34987E-06   656   0.351E-03
  31 F= -.87260191E+03 E0= -.87260191E+03  d E =-.791060E-05
 BRION: g(F)=  0.364E-04 g(S)=  0.000E+00 retain N=  3 mean eig= 0.91
 eig:   2.120  0.465  0.147
 bond charge predicted
       N       E                     dE             d eps       ncg     rms          rms(c)
DAV:   1    -0.872601992376E+03   -0.80994E-04   -0.45058E-03   704   0.973E-02    0.229E-02
DAV:   2    -0.872601995854E+03   -0.34776E-05   -0.47712E-05   768   0.111E-02    0.132E-02
DAV:   3    -0.872601995279E+03    0.57468E-06   -0.17321E-06   592   0.338E-03
  32 F= -.87260200E+03 E0= -.87260200E+03  d E =-.836164E-04
 BRION: g(F)=  0.552E-04 g(S)=  0.000E+00 retain N=  4 mean eig= 0.93
 eig:   2.546  0.577  0.577  0.025
 bond charge predicted
       N       E                     dE             d eps       ncg     rms          rms(c)
DAV:   1    -0.872602051675E+03   -0.55821E-04   -0.20640E-03   704   0.669E-02    0.154E-02
DAV:   2    -0.872602053250E+03   -0.15753E-05   -0.22656E-05   784   0.789E-03    0.859E-03
DAV:   3    -0.872602052910E+03    0.34038E-06   -0.90725E-07   552   0.260E-03
  33 F= -.87260205E+03 E0= -.87260205E+03  d E =-.576308E-04
 BRION: g(F)=  0.362E-04 g(S)=  0.000E+00 retain N=  1 mean eig= 0.16
 eig:   0.162
 bond charge predicted
       N       E                     dE             d eps       ncg     rms          rms(c)
DAV:   1    -0.872602082205E+03   -0.28954E-04   -0.14799E-03   704   0.723E-02    0.108E-02
DAV:   2    -0.872602084538E+03   -0.23338E-05   -0.27479E-05   792   0.941E-03    0.557E-03
DAV:   3    -0.872602084259E+03    0.27966E-06   -0.53855E-07   504   0.180E-03
  34 F= -.87260208E+03 E0= -.87260208E+03  d E =-.313489E-04
 BRION: g(F)=  0.414E-04 g(S)=  0.000E+00 retain N=  2 mean eig= 0.24
 eig:   0.102  0.370
 bond charge predicted
       N       E                     dE             d eps       ncg     rms          rms(c)
DAV:   1    -0.872602095019E+03   -0.10480E-04   -0.19439E-04   704   0.261E-02    0.560E-03
DAV:   2    -0.872602095371E+03   -0.35238E-06   -0.49040E-06   720   0.401E-03
  35 F= -.87260210E+03 E0= -.87260210E+03  d E =-.111124E-04
 BRION: g(F)=  0.345E-04 g(S)=  0.000E+00 retain N=  1 mean eig= 0.29
 eig:   0.293
 bond charge predicted
       N       E                     dE             d eps       ncg     rms          rms(c)
DAV:   1    -0.872602128462E+03   -0.33443E-04   -0.10964E-03   704   0.580E-02    0.944E-03
DAV:   2    -0.872602129829E+03   -0.13667E-05   -0.16392E-05   784   0.701E-03    0.570E-03
DAV:   3    -0.872602129717E+03    0.11221E-06   -0.36876E-07   480   0.148E-03
  36 F= -.87260213E+03 E0= -.87260213E+03  d E =-.343455E-04
 BRION: g(F)=  0.361E-04 g(S)=  0.000E+00 retain N=  2 mean eig= 0.36
 eig:   0.359  0.359
 bond charge predicted
       N       E                     dE             d eps       ncg     rms          rms(c)
DAV:   1    -0.872602137329E+03   -0.75004E-05   -0.61941E-05   664   0.138E-02    0.224E-03
DAV:   2    -0.872602137391E+03   -0.61540E-07   -0.83444E-07   408   0.170E-03
  37 F= -.87260214E+03 E0= -.87260214E+03  d E =-.767411E-05
 BRION: g(F)=  0.346E-04 g(S)=  0.000E+00 retain N=  1 mean eig= 0.20
 eig:   0.201
 bond charge predicted
       N       E                     dE             d eps       ncg     rms          rms(c)
DAV:   1    -0.872602174055E+03   -0.36725E-04   -0.13718E-03   712   0.645E-02    0.986E-03
DAV:   2    -0.872602175706E+03   -0.16515E-05   -0.19319E-05   768   0.749E-03    0.596E-03
DAV:   3    -0.872602175566E+03    0.13975E-06   -0.40906E-07   496   0.149E-03
  38 F= -.87260218E+03 E0= -.87260218E+03  d E =-.381756E-04
 BRION: g(F)=  0.355E-04 g(S)=  0.000E+00 retain N=  2 mean eig= 0.37
 eig:   0.153  0.596
 bond charge predicted
       N       E                     dE             d eps       ncg     rms          rms(c)
DAV:   1    -0.872602185533E+03   -0.98269E-05   -0.95654E-05   688   0.171E-02    0.281E-03
DAV:   2    -0.872602185634E+03   -0.10074E-06   -0.12788E-06   432   0.207E-03
  39 F= -.87260219E+03 E0= -.87260219E+03  d E =-.100674E-04
 BRION: g(F)=  0.343E-04 g(S)=  0.000E+00 retain N=  1 mean eig= 0.32
 eig:   0.317
 bond charge predicted
       N       E                     dE             d eps       ncg     rms          rms(c)
DAV:   1    -0.872602225500E+03   -0.39967E-04   -0.15702E-03   712   0.680E-02    0.109E-02
DAV:   2    -0.872602227316E+03   -0.18163E-05   -0.21490E-05   768   0.787E-03    0.655E-03
DAV:   3    -0.872602227161E+03    0.15541E-06   -0.48208E-07   496   0.164E-03
  40 F= -.87260223E+03 E0= -.87260223E+03  d E =-.415273E-04
 BRION: g(F)=  0.359E-04 g(S)=  0.000E+00 retain N=  2 mean eig= 0.59
 eig:   0.424  0.755
 bond charge predicted
       N       E                     dE             d eps       ncg     rms          rms(c)
DAV:   1    -0.872602242312E+03   -0.14996E-04   -0.21043E-04   712   0.253E-02    0.423E-03
DAV:   2    -0.872602242548E+03   -0.23594E-06   -0.29157E-06   632   0.303E-03
  41 F= -.87260224E+03 E0= -.87260224E+03  d E =-.153872E-04
 BRION: g(F)=  0.342E-04 g(S)=  0.000E+00 retain N=  2 mean eig= 1.81
 eig:   1.813  1.813
 bond charge predicted
       N       E                     dE             d eps       ncg     rms          rms(c)
DAV:   1    -0.872602258397E+03   -0.16084E-04   -0.32290E-04   704   0.312E-02    0.625E-03
DAV:   2    -0.872602258753E+03   -0.35625E-06   -0.50588E-06   736   0.399E-03
  42 F= -.87260226E+03 E0= -.87260226E+03  d E =-.162047E-04
 BRION: g(F)=  0.377E-04 g(S)=  0.000E+00 retain N=  2 mean eig= 0.42
 eig:   0.647  0.197
 bond charge predicted
       N       E                     dE             d eps       ncg     rms          rms(c)
DAV:   1    -0.872602290955E+03   -0.32558E-04   -0.88424E-04   704   0.507E-02    0.957E-03
DAV:   2    -0.872602291958E+03   -0.10029E-05   -0.12267E-05   760   0.601E-03    0.565E-03
DAV:   3    -0.872602291868E+03    0.89916E-07   -0.31521E-07   464   0.129E-03
  43 F= -.87260229E+03 E0= -.87260229E+03  d E =-.331148E-04
 BRION: g(F)=  0.356E-04 g(S)=  0.000E+00 retain N=  2 mean eig= 2.32
 eig:   0.241  4.400
 bond charge predicted
       N       E                     dE             d eps       ncg     rms          rms(c)
DAV:   1    -0.872602244142E+03    0.47816E-04   -0.17918E-03   704   0.722E-02    0.109E-02
DAV:   2    -0.872602246195E+03   -0.20533E-05   -0.24235E-05   768   0.839E-03    0.672E-03
DAV:   3    -0.872602246005E+03    0.19035E-06   -0.53350E-07   496   0.169E-03
  44 F= -.87260225E+03 E0= -.87260225E+03  d E =0.458628E-04
 BRION: g(F)=  0.373E-04 g(S)=  0.000E+00 retain N=  3 mean eig= 2.49
 eig:   4.891  0.218  2.372
 bond charge predicted
       N       E                     dE             d eps       ncg     rms          rms(c)
DAV:   1    -0.872602272677E+03   -0.26481E-04   -0.61994E-04   704   0.424E-02    0.654E-03
DAV:   2    -0.872602273394E+03   -0.71731E-06   -0.85596E-06   744   0.504E-03
  45 F= -.87260227E+03 E0= -.87260227E+03  d E =-.273891E-04
 BRION: g(F)=  0.356E-04 g(S)=  0.000E+00 retain N=  3 mean eig= 2.62
 eig:   0.413  3.724  3.724
 bond charge predicted
       N       E                     dE             d eps       ncg     rms          rms(c)
DAV:   1    -0.872602540998E+03   -0.26832E-03   -0.10277E-01   712   0.531E-01    0.882E-02
DAV:   2    -0.872602645532E+03   -0.10453E-03   -0.12523E-03   768   0.593E-02    0.537E-02
DAV:   3    -0.872602636497E+03    0.90356E-05   -0.34668E-05   808   0.127E-02    0.187E-02
DAV:   4    -0.872602637207E+03   -0.71051E-06   -0.11887E-05   776   0.670E-03    0.434E-03
DAV:   5    -0.872602636977E+03    0.22990E-06   -0.96219E-07   536   0.249E-03
  46 F= -.87260264E+03 E0= -.87260264E+03  d E =-.363583E-03
 BRION: g(F)=  0.446E-04 g(S)=  0.000E+00 retain N=  4 mean eig= 2.77
 eig:   4.941  4.941  0.802  0.390
 bond charge predicted
       N       E                     dE             d eps       ncg     rms          rms(c)
DAV:   1    -0.872602753782E+03   -0.11657E-03   -0.12062E-02   704   0.180E-01    0.305E-02
DAV:   2    -0.872602766426E+03   -0.12644E-04   -0.14769E-04   768   0.203E-02    0.184E-02
DAV:   3    -0.872602765566E+03    0.86006E-06   -0.39549E-06   696   0.460E-03
  47 F= -.87260277E+03 E0= -.87260277E+03  d E =-.128588E-03
 BRION: g(F)=  0.385E-04 g(S)=  0.000E+00 retain N=  5 mean eig= 3.18
 eig:   7.009  7.009  0.400  0.753  0.753
 bond charge predicted
       N       E                     dE             d eps       ncg     rms          rms(c)
DAV:   1    -0.872602804842E+03   -0.38416E-04   -0.11558E-03   736   0.551E-02    0.972E-03
DAV:   2    -0.872602805935E+03   -0.10931E-05   -0.13147E-05   752   0.604E-03    0.569E-03
DAV:   3    -0.872602805942E+03   -0.64538E-08   -0.44753E-07   512   0.137E-03
  48 F= -.87260281E+03 E0= -.87260281E+03  d E =-.403760E-04
 BRION: g(F)=  0.391E-04 g(S)=  0.000E+00 retain N=  2 mean eig= 2.55
 eig:   0.678  4.423
 bond charge predicted
       N       E                     dE             d eps       ncg     rms          rms(c)
DAV:   1    -0.872602750355E+03    0.55580E-04   -0.29639E-03   704   0.981E-02    0.172E-02
DAV:   2    -0.872602754487E+03   -0.41322E-05   -0.51968E-05   808   0.130E-02    0.844E-03
DAV:   3    -0.872602753809E+03    0.67764E-06   -0.12078E-06   544   0.289E-03
  49 F= -.87260275E+03 E0= -.87260275E+03  d E =0.521321E-04
 BRION: g(F)=  0.619E-04 g(S)=  0.000E+00 retain N=  3 mean eig= 2.10
 eig:   5.333  0.685  0.285
 bond charge predicted
       N       E                     dE             d eps       ncg     rms          rms(c)
DAV:   1    -0.872602624534E+03    0.12995E-03   -0.12183E-02   704   0.189E-01    0.312E-02
DAV:   2    -0.872602638427E+03   -0.13894E-04   -0.16751E-04   768   0.224E-02    0.179E-02
DAV:   3    -0.872602637120E+03    0.13071E-05   -0.41730E-06   680   0.466E-03    0.835E-03
DAV:   4    -0.872602637068E+03    0.52292E-07   -0.22566E-06   544   0.349E-03
  50 F= -.87260264E+03 E0= -.87260264E+03  d E =0.116741E-03
 BRION: g(F)=  0.413E-04 g(S)=  0.000E+00 retain N=  1 mean eig= 0.45
 eig:   0.452
 bond charge predicted
       N       E                     dE             d eps       ncg     rms          rms(c)
DAV:   1    -0.872602690067E+03   -0.52947E-04   -0.41934E-03   704   0.116E-01    0.171E-02
DAV:   2    -0.872602695638E+03   -0.55711E-05   -0.67148E-05   808   0.144E-02    0.945E-03
DAV:   3    -0.872602694970E+03    0.66774E-06   -0.14706E-06   584   0.296E-03
  51 F= -.87260269E+03 E0= -.87260269E+03  d E =-.579024E-04
 BRION: g(F)=  0.493E-04 g(S)=  0.000E+00 retain N=  2 mean eig= 0.41
 eig:   0.580  0.246
 bond charge predicted
       N       E                     dE             d eps       ncg     rms          rms(c)
DAV:   1    -0.872602711878E+03   -0.16240E-04   -0.40551E-04   704   0.365E-02    0.840E-03
DAV:   2    -0.872602712452E+03   -0.57302E-06   -0.97807E-06   800   0.567E-03
  52 F= -.87260271E+03 E0= -.87260271E+03  d E =-.174811E-04
 BRION: g(F)=  0.354E-04 g(S)=  0.000E+00 retain N=  1 mean eig= 0.26
 eig:   0.262
 bond charge predicted
       N       E                     dE             d eps       ncg     rms          rms(c)
DAV:   1    -0.872602743279E+03   -0.31400E-04   -0.97274E-04   704   0.536E-02    0.102E-02
DAV:   2    -0.872602744475E+03   -0.11967E-05   -0.15250E-05   784   0.671E-03    0.579E-03
DAV:   3    -0.872602744338E+03    0.13738E-06   -0.39173E-07   488   0.155E-03
  53 F= -.87260274E+03 E0= -.87260274E+03  d E =-.318865E-04
 BRION: g(F)=  0.378E-04 g(S)=  0.000E+00 retain N=  2 mean eig= 0.25
 eig:   0.252  0.252
 bond charge predicted
       N       E                     dE             d eps       ncg     rms          rms(c)
DAV:   1    -0.872602753434E+03   -0.89586E-05   -0.89327E-05   672   0.168E-02    0.322E-03
DAV:   2    -0.872602753535E+03   -0.10084E-06   -0.15869E-06   504   0.233E-03
  54 F= -.87260275E+03 E0= -.87260275E+03  d E =-.919682E-05
 BRION: g(F)=  0.348E-04 g(S)=  0.000E+00 retain N=  1 mean eig= 0.25
 eig:   0.254
 bond charge predicted
       N       E                     dE             d eps       ncg     rms          rms(c)
DAV:   1    -0.872602789368E+03   -0.35934E-04   -0.12431E-03   704   0.608E-02    0.975E-03
DAV:   2    -0.872602790830E+03   -0.14621E-05   -0.17372E-05   768   0.708E-03    0.589E-03
DAV:   3    -0.872602790699E+03    0.13072E-06   -0.39339E-07   504   0.145E-03
  55 F= -.87260279E+03 E0= -.87260279E+03  d E =-.371640E-04
 BRION: g(F)=  0.361E-04 g(S)=  0.000E+00 retain N=  2 mean eig= 0.31
 eig:   0.208  0.405
 bond charge predicted
       N       E                     dE             d eps       ncg     rms          rms(c)
DAV:   1    -0.872602796101E+03   -0.52718E-05   -0.25329E-05   656   0.845E-03    0.151E-03
DAV:   2    -0.872602796119E+03   -0.18052E-07   -0.29581E-07   384   0.101E-03
  56 F= -.87260280E+03 E0= -.87260280E+03  d E =-.542057E-05
 BRION: g(F)=  0.353E-04 g(S)=  0.000E+00 retain N=  3 mean eig= 2.35
 eig:   6.329  0.226  0.494
 bond charge predicted
       N       E                     dE             d eps       ncg     rms          rms(c)
DAV:   1    -0.872602790393E+03    0.57081E-05   -0.27770E-05   640   0.896E-03    0.113E-03
DAV:   2    -0.872602790426E+03   -0.32254E-07   -0.34997E-07   360   0.109E-03
  57 F= -.87260279E+03 E0= -.87260279E+03  d E =0.569390E-05
 BRION: g(F)=  0.363E-04 g(S)=  0.000E+00 retain N=  4 mean eig= 1.80
 eig:   3.879  3.067  0.226  0.041
 bond charge predicted
       N       E                     dE             d eps       ncg     rms          rms(c)
DAV:   1    -0.872603027959E+03   -0.23757E-03   -0.90690E-02   712   0.501E-01    0.794E-02
DAV:   2    -0.872603127455E+03   -0.99497E-04   -0.11734E-03   768   0.569E-02    0.484E-02
DAV:   3    -0.872603120150E+03    0.73056E-05   -0.30395E-05   816   0.114E-02    0.187E-02
DAV:   4    -0.872603120563E+03   -0.41318E-06   -0.11149E-05   784   0.673E-03    0.405E-03
DAV:   5    -0.872603120388E+03    0.17457E-06   -0.10854E-06   512   0.254E-03
  58 F= -.87260312E+03 E0= -.87260312E+03  d E =-.329963E-03
 BRION: g(F)=  0.567E-04 g(S)=  0.000E+00 retain N=  5 mean eig= 1.74
 eig:   2.877  2.772  2.772  0.243  0.054
 bond charge predicted
       N       E                     dE             d eps       ncg     rms          rms(c)
DAV:   1    -0.872603289134E+03   -0.16857E-03   -0.33606E-02   704   0.306E-01    0.492E-02
DAV:   2    -0.872603327392E+03   -0.38258E-04   -0.44610E-04   768   0.353E-02    0.296E-02
DAV:   3    -0.872603324777E+03    0.26149E-05   -0.11018E-05   752   0.728E-03    0.121E-02
DAV:   4    -0.872603324999E+03   -0.22235E-06   -0.46962E-06   744   0.440E-03
  59 F= -.87260332E+03 E0= -.87260332E+03  d E =-.204611E-03
 BRION: g(F)=  0.375E-04 g(S)=  0.000E+00 retain N=  6 mean eig= 3.52
 eig:   7.756  7.756  4.818  0.546  0.198  0.043
 bond charge predicted
       N       E                     dE             d eps       ncg     rms          rms(c)
DAV:   1    -0.872603331085E+03   -0.63079E-05   -0.34179E-05   696   0.976E-03    0.261E-03
DAV:   2    -0.872603331135E+03   -0.50692E-07   -0.84501E-07   488   0.180E-03
  60 F= -.87260333E+03 E0= -.87260333E+03  d E =-.613625E-05
 BRION: g(F)=  0.391E-04 g(S)=  0.000E+00 retain N=  2 mean eig= 1.64
 eig:   0.960  2.326
 bond charge predicted
       N       E                     dE             d eps       ncg     rms          rms(c)
DAV:   1    -0.872603385469E+03   -0.54384E-04   -0.24328E-03   704   0.783E-02    0.159E-02
DAV:   2    -0.872603388215E+03   -0.27460E-05   -0.34221E-05   816   0.967E-03    0.932E-03
DAV:   3    -0.872603387808E+03    0.40650E-06   -0.11588E-06   568   0.277E-03
  61 F= -.87260339E+03 E0= -.87260339E+03  d E =-.566729E-04
 BRION: g(F)=  0.493E-04 g(S)=  0.000E+00 retain N=  3 mean eig= 1.22
 eig:   2.439  0.960  0.264
 bond charge predicted
       N       E                     dE             d eps       ncg     rms          rms(c)
DAV:   1    -0.872603389460E+03   -0.12455E-05   -0.27490E-04   704   0.323E-02    0.600E-03
DAV:   2    -0.872603389995E+03   -0.53430E-06   -0.75960E-06   816   0.506E-03
  62 F= -.87260339E+03 E0= -.87260339E+03  d E =-.218629E-05
 BRION: g(F)=  0.361E-04 g(S)=  0.000E+00 retain N=  3 mean eig= 2.47
 eig:   6.968  0.199  0.256
 bond charge predicted
       N       E                     dE             d eps       ncg     rms          rms(c)
DAV:   1    -0.872603396199E+03   -0.67383E-05   -0.93457E-05   712   0.183E-02    0.312E-03
DAV:   2    -0.872603396322E+03   -0.12347E-06   -0.17993E-06   560   0.251E-03
  63 F= -.87260340E+03 E0= -.87260340E+03  d E =-.632751E-05
 BRION: g(F)=  0.352E-04 g(S)=  0.000E+00 retain N=  2 mean eig= 0.18
 eig:   0.183  0.183
 bond charge predicted
       N       E                     dE             d eps       ncg     rms          rms(c)
DAV:   1    -0.872603427929E+03   -0.31730E-04   -0.12079E-03   704   0.615E-02    0.964E-03
DAV:   2    -0.872603429556E+03   -0.16276E-05   -0.18976E-05   768   0.755E-03    0.541E-03
DAV:   3    -0.872603429420E+03    0.13643E-06   -0.37541E-07   472   0.138E-03
  64 F= -.87260343E+03 E0= -.87260343E+03  d E =-.330978E-04
 BRION: g(F)=  0.363E-04 g(S)=  0.000E+00 retain N=  3 mean eig= 0.29
 eig:   0.129  0.371  0.371
 bond charge predicted
       N       E                     dE             d eps       ncg     rms          rms(c)
DAV:   1    -0.872603443941E+03   -0.14385E-04   -0.16841E-04   688   0.215E-02    0.444E-03
DAV:   2    -0.872603444147E+03   -0.20593E-06   -0.25900E-06   592   0.287E-03
  65 F= -.87260344E+03 E0= -.87260344E+03  d E =-.147273E-04
 BRION: g(F)=  0.343E-04 g(S)=  0.000E+00 retain N=  2 mean eig= 0.68
 eig:   0.044  1.316
 bond charge predicted
       N       E                     dE             d eps       ncg     rms          rms(c)
DAV:   1    -0.872603467032E+03   -0.23091E-04   -0.45699E-04   704   0.367E-02    0.717E-03
DAV:   2    -0.872603467581E+03   -0.54861E-06   -0.68541E-06   760   0.454E-03
  66 F= -.87260347E+03 E0= -.87260347E+03  d E =-.234333E-04
 BRION: g(F)=  0.345E-04 g(S)=  0.000E+00 retain N=  2 mean eig= 0.35
 eig:   0.355  0.355
 bond charge predicted
       N       E                     dE             d eps       ncg     rms          rms(c)
DAV:   1    -0.872603496624E+03   -0.29592E-04   -0.71875E-04   704   0.433E-02    0.916E-03
DAV:   2    -0.872603497256E+03   -0.63216E-06   -0.87042E-06   760   0.491E-03
  67 F= -.87260350E+03 E0= -.87260350E+03  d E =-.296757E-04
 BRION: g(F)=  0.340E-04 g(S)=  0.000E+00 retain N=  2 mean eig= 1.92
 eig:   0.237  3.612
 bond charge predicted
       N       E                     dE             d eps       ncg     rms          rms(c)
DAV:   1    -0.872603517275E+03   -0.20651E-04   -0.33462E-04   704   0.305E-02    0.764E-03
DAV:   2    -0.872603517687E+03   -0.41225E-06   -0.53564E-06   728   0.402E-03
  68 F= -.87260352E+03 E0= -.87260352E+03  d E =-.204306E-04
 BRION: g(F)=  0.358E-04 g(S)=  0.000E+00 retain N=  2 mean eig= 0.13
 eig:   0.178  0.085
 bond charge predicted
       N       E                     dE             d eps       ncg     rms          rms(c)
DAV:   1    -0.872603527463E+03   -0.10188E-04   -0.11628E-04   720   0.197E-02    0.490E-03
DAV:   2    -0.872603527632E+03   -0.16963E-06   -0.22852E-06   560   0.275E-03
  69 F= -.87260353E+03 E0= -.87260353E+03  d E =-.994549E-05
 BRION: g(F)=  0.340E-04 g(S)=  0.000E+00 retain N=  2 mean eig= 2.10
 eig:   0.354  3.846
 bond charge predicted
       N       E                     dE             d eps       ncg     rms          rms(c)
DAV:   1    -0.872603536588E+03   -0.91250E-05   -0.89270E-05   704   0.165E-02    0.418E-03
DAV:   2    -0.872603536654E+03   -0.66000E-07   -0.14085E-06   520   0.226E-03
  70 F= -.87260354E+03 E0= -.87260354E+03  d E =-.902134E-05
 BRION: g(F)=  0.377E-04 g(S)=  0.000E+00 retain N=  2 mean eig= 0.36
 eig:   0.265  0.450
 bond charge predicted
       N       E                     dE             d eps       ncg     rms          rms(c)
DAV:   1    -0.872603559489E+03   -0.22901E-04   -0.53704E-04   712   0.394E-02    0.711E-03
DAV:   2    -0.872603560085E+03   -0.59628E-06   -0.76328E-06   776   0.474E-03
  71 F= -.87260356E+03 E0= -.87260356E+03  d E =-.234313E-04
 BRION: g(F)=  0.338E-04 g(S)=  0.000E+00 retain N=  2 mean eig= 1.30
 eig:   0.217  2.381
 bond charge predicted
       N       E                     dE             d eps       ncg     rms          rms(c)
DAV:   1    -0.872603578135E+03   -0.18646E-04   -0.25421E-04   704   0.265E-02    0.678E-03
DAV:   2    -0.872603578402E+03   -0.26712E-06   -0.37530E-06   648   0.343E-03
  72 F= -.87260358E+03 E0= -.87260358E+03  d E =-.183167E-04
 BRION: g(F)=  0.344E-04 g(S)=  0.000E+00 retain N=  2 mean eig= 0.13
 eig:   0.176  0.090
 bond charge predicted
       N       E                     dE             d eps       ncg     rms          rms(c)
DAV:   1    -0.872603606522E+03   -0.28388E-04   -0.64213E-04   704   0.417E-02    0.850E-03
DAV:   2    -0.872603607154E+03   -0.63117E-06   -0.81402E-06   744   0.482E-03
  73 F= -.87260361E+03 E0= -.87260361E+03  d E =-.287518E-04
 BRION: g(F)=  0.328E-04 g(S)=  0.000E+00 retain N=  3 mean eig= 2.20
 eig:   5.952  0.148  0.499
 bond charge predicted
       N       E                     dE             d eps       ncg     rms          rms(c)
DAV:   1    -0.872603694012E+03   -0.87489E-04   -0.62830E-03   704   0.128E-01    0.244E-02
DAV:   2    -0.872603699961E+03   -0.59491E-05   -0.74605E-05   776   0.143E-02    0.145E-02
DAV:   3    -0.872603699323E+03    0.63797E-06   -0.22286E-06   616   0.338E-03
  74 F= -.87260370E+03 E0= -.87260370E+03  d E =-.921693E-04
 BRION: g(F)=  0.400E-04 g(S)=  0.000E+00 retain N=  3 mean eig= 1.67
 eig:   4.244  0.377  0.377
 bond charge predicted
       N       E                     dE             d eps       ncg     rms          rms(c)
DAV:   1    -0.872603638184E+03    0.61777E-04   -0.26197E-03   704   0.836E-02    0.147E-02
DAV:   2    -0.872603640897E+03   -0.27130E-05   -0.33609E-05   776   0.982E-03    0.880E-03
DAV:   3    -0.872603640551E+03    0.34598E-06   -0.88320E-07   560   0.233E-03
  75 F= -.87260364E+03 E0= -.87260364E+03  d E =0.587720E-04
 BRION: g(F)=  0.388E-04 g(S)=  0.000E+00 retain N=  3 mean eig= 1.44
 eig:   2.938  0.690  0.690
 bond charge predicted
       N       E                     dE             d eps       ncg     rms          rms(c)
DAV:   1    -0.872603663982E+03   -0.23085E-04   -0.42322E-04   704   0.334E-02    0.563E-03
DAV:   2    -0.872603664422E+03   -0.43993E-06   -0.54603E-06   720   0.393E-03
  76 F= -.87260366E+03 E0= -.87260366E+03  d E =-.238709E-04
 BRION: g(F)=  0.352E-04 g(S)=  0.000E+00 retain N=  4 mean eig= 0.98
 eig:   1.694  1.015  0.605  0.605
 bond charge predicted
       N       E                     dE             d eps       ncg     rms          rms(c)
DAV:   1    -0.872603856644E+03   -0.19266E-03   -0.31949E-02   704   0.274E-01    0.538E-02
DAV:   2    -0.872603883396E+03   -0.26752E-04   -0.33723E-04   776   0.296E-02    0.324E-02
DAV:   3    -0.872603880553E+03    0.28424E-05   -0.11395E-05   760   0.751E-03    0.924E-03
DAV:   4    -0.872603880796E+03   -0.24240E-06   -0.27877E-06   600   0.324E-03
  77 F= -.87260388E+03 E0= -.87260388E+03  d E =-.216374E-03
 BRION: g(F)=  0.547E-04 g(S)=  0.000E+00 retain N=  5 mean eig= 1.60
 eig:   3.220  3.220  1.080  0.247  0.247
 bond charge predicted
       N       E                     dE             d eps       ncg     rms          rms(c)
DAV:   1    -0.872604018208E+03   -0.13765E-03   -0.14461E-02   704   0.184E-01    0.359E-02
DAV:   2    -0.872604031177E+03   -0.12970E-04   -0.15799E-04   768   0.203E-02    0.214E-02
DAV:   3    -0.872604030163E+03    0.10142E-05   -0.47805E-06   712   0.460E-03    0.672E-03
DAV:   4    -0.872604030276E+03   -0.11277E-06   -0.11223E-06   528   0.207E-03
  78 F= -.87260403E+03 E0= -.87260403E+03  d E =-.149480E-03
 BRION: g(F)=  0.383E-04 g(S)=  0.000E+00 retain N=  4 mean eig= 1.90
 eig:   5.490  1.746  0.211  0.132
 bond charge predicted
       N       E                     dE             d eps       ncg     rms          rms(c)
DAV:   1    -0.872603931708E+03    0.98455E-04   -0.58409E-03   704   0.120E-01    0.221E-02
DAV:   2    -0.872603937057E+03   -0.53496E-05   -0.66123E-05   776   0.133E-02    0.135E-02
DAV:   3    -0.872603936471E+03    0.58636E-06   -0.19704E-06   584   0.316E-03
  79 F= -.87260394E+03 E0= -.87260394E+03  d E =0.938048E-04
 BRION: g(F)=  0.507E-04 g(S)=  0.000E+00 retain N=  4 mean eig= 2.30
 eig:   4.826  3.574  0.602  0.197
 bond charge predicted
       N       E                     dE             d eps       ncg     rms          rms(c)
DAV:   1    -0.872603857899E+03    0.79158E-04   -0.41781E-03   704   0.104E-01    0.201E-02
DAV:   2    -0.872603862063E+03   -0.41636E-05   -0.52180E-05   776   0.122E-02    0.112E-02
DAV:   3    -0.872603861573E+03    0.49006E-06   -0.15187E-06   576   0.297E-03
  80 F= -.87260386E+03 E0= -.87260386E+03  d E =0.748983E-04
 BRION: g(F)=  0.454E-04 g(S)=  0.000E+00 retain N=  4 mean eig= 1.80
 eig:   5.910  0.551  0.551  0.202
 bond charge predicted
       N       E                     dE             d eps       ncg     rms          rms(c)
DAV:   1    -0.872603805830E+03    0.56232E-04   -0.20304E-03   704   0.677E-02    0.152E-02
DAV:   2    -0.872603807545E+03   -0.17147E-05   -0.23193E-05   800   0.797E-03    0.849E-03
DAV:   3    -0.872603807232E+03    0.31279E-06   -0.84332E-07   552   0.232E-03
  81 F= -.87260381E+03 E0= -.87260381E+03  d E =0.543404E-04
 BRION: g(F)=  0.455E-04 g(S)=  0.000E+00 retain N=  5 mean eig= 1.56
 eig:   5.956  0.573  0.539  0.539  0.194
 bond charge predicted
       N       E                     dE             d eps       ncg     rms          rms(c)
DAV:   1    -0.872603776672E+03    0.30873E-04   -0.70022E-04   704   0.423E-02    0.891E-03
DAV:   2    -0.872603777322E+03   -0.64968E-06   -0.91868E-06   760   0.532E-03
  82 F= -.87260378E+03 E0= -.87260378E+03  d E =0.299105E-04
 BRION: g(F)=  0.390E-04 g(S)=  0.000E+00 retain N=  3 mean eig= 2.19
 eig:   5.742  0.292  0.532
 bond charge predicted
       N       E                     dE             d eps       ncg     rms          rms(c)
DAV:   1    -0.872603815233E+03   -0.38561E-04   -0.16547E-03   704   0.707E-02    0.114E-02
DAV:   2    -0.872603817558E+03   -0.23245E-05   -0.28770E-05   800   0.949E-03    0.570E-03
DAV:   3    -0.872603817257E+03    0.30079E-06   -0.69388E-07   512   0.215E-03
  83 F= -.87260382E+03 E0= -.87260382E+03  d E =-.399354E-04
 BRION: g(F)=  0.502E-04 g(S)=  0.000E+00 retain N=  3 mean eig= 1.33
 eig:   2.332  1.138  0.513
 bond charge predicted
       N       E                     dE             d eps       ncg     rms          rms(c)
DAV:   1    -0.872603881552E+03   -0.63994E-04   -0.32977E-03   704   0.923E-02    0.194E-02
DAV:   2    -0.872603884547E+03   -0.29946E-05   -0.42183E-05   776   0.112E-02    0.102E-02
DAV:   3    -0.872603883915E+03    0.63146E-06   -0.13788E-06   584   0.311E-03
  84 F= -.87260388E+03 E0= -.87260388E+03  d E =-.666583E-04
 BRION: g(F)=  0.430E-04 g(S)=  0.000E+00 retain N=  2 mean eig= 1.83
 eig:   0.324  3.341
 bond charge predicted
       N       E                     dE             d eps       ncg     rms          rms(c)
DAV:   1    -0.872603840904E+03    0.43643E-04   -0.13214E-03   704   0.577E-02    0.127E-02
DAV:   2    -0.872603842055E+03   -0.11508E-05   -0.17691E-05   800   0.747E-03    0.668E-03
DAV:   3    -0.872603841731E+03    0.32342E-06   -0.62774E-07   512   0.226E-03
  85 F= -.87260384E+03 E0= -.87260384E+03  d E =0.421842E-04
 BRION: g(F)=  0.376E-04 g(S)=  0.000E+00 retain N=  2 mean eig= 0.31
 eig:   0.341  0.285
 bond charge predicted
       N       E                     dE             d eps       ncg     rms          rms(c)
DAV:   1    -0.872603882816E+03   -0.40761E-04   -0.13392E-03   704   0.603E-02    0.102E-02
DAV:   2    -0.872603884275E+03   -0.14589E-05   -0.17638E-05   776   0.709E-03    0.618E-03
DAV:   3    -0.872603884119E+03    0.15624E-06   -0.41558E-07   488   0.159E-03
  86 F= -.87260388E+03 E0= -.87260388E+03  d E =-.423875E-04
 BRION: g(F)=  0.354E-04 g(S)=  0.000E+00 retain N=  3 mean eig= 0.43
 eig:   0.698  0.032  0.565
 bond charge predicted
       N       E                     dE             d eps       ncg     rms          rms(c)
DAV:   1    -0.872603899188E+03   -0.14912E-04   -0.20174E-04   696   0.237E-02    0.463E-03
DAV:   2    -0.872603899395E+03   -0.20712E-06   -0.28083E-06   600   0.300E-03
  87 F= -.87260390E+03 E0= -.87260390E+03  d E =-.152759E-04
 BRION: g(F)=  0.335E-04 g(S)=  0.000E+00 retain N=  3 mean eig= 2.10
 eig:   5.611  0.184  0.499
 bond charge predicted
       N       E                     dE             d eps       ncg     rms          rms(c)
DAV:   1    -0.872603968521E+03   -0.69334E-04   -0.42846E-03   704   0.108E-01    0.192E-02
DAV:   2    -0.872603973008E+03   -0.44868E-05   -0.54564E-05   768   0.124E-02    0.115E-02
DAV:   3    -0.872603972571E+03    0.43666E-06   -0.14439E-06   576   0.281E-03
  88 F= -.87260397E+03 E0= -.87260397E+03  d E =-.731765E-04
 BRION: g(F)=  0.377E-04 g(S)=  0.000E+00 retain N=  3 mean eig= 1.12
 eig:   2.587  0.394  0.394
 bond charge predicted
       N       E                     dE             d eps       ncg     rms          rms(c)
DAV:   1    -0.872603987677E+03   -0.14669E-04   -0.18598E-04   704   0.229E-02    0.493E-03
DAV:   2    -0.872603987853E+03   -0.17626E-06   -0.27209E-06   616   0.308E-03
  89 F= -.87260399E+03 E0= -.87260399E+03  d E =-.152821E-04
 BRION: g(F)=  0.349E-04 g(S)=  0.000E+00 retain N=  3 mean eig= 1.88
 eig:   5.214  0.334  0.085
 bond charge predicted
       N       E                     dE             d eps       ncg     rms          rms(c)
DAV:   1    -0.872603914111E+03    0.73566E-04   -0.37493E-03   704   0.977E-02    0.161E-02
DAV:   2    -0.872603917857E+03   -0.37452E-05   -0.44479E-05   768   0.109E-02    0.971E-03
DAV:   3    -0.872603917533E+03    0.32355E-06   -0.11413E-06   568   0.225E-03
  90 F= -.87260392E+03 E0= -.87260392E+03  d E =0.703203E-04
 BRION: g(F)=  0.355E-04 g(S)=  0.000E+00 retain N=  3 mean eig= 2.65
 eig:   0.132  0.448  7.363
 bond charge predicted
       N       E                     dE             d eps       ncg     rms          rms(c)
DAV:   1    -0.872603941435E+03   -0.23579E-04   -0.47657E-04   704   0.360E-02    0.596E-03
DAV:   2    -0.872603941945E+03   -0.50960E-06   -0.63243E-06   728   0.428E-03
  91 F= -.87260394E+03 E0= -.87260394E+03  d E =-.244118E-04
 BRION: g(F)=  0.342E-04 g(S)=  0.000E+00 retain N=  3 mean eig= 1.02
 eig:   0.326  1.362  1.362
 bond charge predicted
       N       E                     dE             d eps       ncg     rms          rms(c)
DAV:   1    -0.872604054846E+03   -0.11341E-03   -0.11020E-02   704   0.164E-01    0.319E-02
DAV:   2    -0.872604064513E+03   -0.96672E-05   -0.12303E-04   768   0.182E-02    0.190E-02
DAV:   3    -0.872604063368E+03    0.11450E-05   -0.41451E-06   704   0.462E-03    0.611E-03
DAV:   4    -0.872604063446E+03   -0.77751E-07   -0.12547E-06   520   0.240E-03
  92 F= -.87260406E+03 E0= -.87260406E+03  d E =-.121501E-03
 BRION: g(F)=  0.573E-04 g(S)=  0.000E+00 retain N=  4 mean eig= 1.00
 eig:   1.214  1.229  1.229  0.326
 bond charge predicted
       N       E                     dE             d eps       ncg     rms          rms(c)
DAV:   1    -0.872604216168E+03   -0.15280E-03   -0.17841E-02   704   0.205E-01    0.402E-02
DAV:   2    -0.872604231803E+03   -0.15635E-04   -0.19472E-04   768   0.228E-02    0.239E-02
DAV:   3    -0.872604230254E+03    0.15484E-05   -0.62824E-06   720   0.559E-03    0.788E-03
DAV:   4    -0.872604230341E+03   -0.86620E-07   -0.16526E-06   552   0.265E-03
  93 F= -.87260423E+03 E0= -.87260423E+03  d E =-.166895E-03
 BRION: g(F)=  0.422E-04 g(S)=  0.000E+00 retain N=  2 mean eig= 1.40
 eig:   0.126  2.664
 bond charge predicted
       N       E                     dE             d eps       ncg     rms          rms(c)
DAV:   1    -0.872603994007E+03    0.23625E-03   -0.29462E-02   704   0.262E-01    0.504E-02
DAV:   2    -0.872604018685E+03   -0.24677E-04   -0.30666E-04   768   0.280E-02    0.307E-02
DAV:   3    -0.872604016108E+03    0.25764E-05   -0.10053E-05   736   0.670E-03    0.787E-03
DAV:   4    -0.872604016270E+03   -0.16157E-06   -0.19898E-06   560   0.274E-03
  94 F= -.87260402E+03 E0= -.87260402E+03  d E =0.214071E-03
 BRION: g(F)=  0.456E-04 g(S)=  0.000E+00 retain N=  3 mean eig= 2.14
 eig:   5.310  0.210  0.902
 bond charge predicted
       N       E                     dE             d eps       ncg     rms          rms(c)
DAV:   1    -0.872604011002E+03    0.51062E-05   -0.67880E-05   696   0.139E-02    0.324E-03
DAV:   2    -0.872604011077E+03   -0.74469E-07   -0.13154E-06   536   0.217E-03
  95 F= -.87260401E+03 E0= -.87260401E+03  d E =0.519326E-05
 BRION: g(F)=  0.364E-04 g(S)=  0.000E+00 retain N=  2 mean eig= 2.50
 eig:   0.853  4.154
 bond charge predicted
       N       E                     dE             d eps       ncg     rms          rms(c)
DAV:   1    -0.872604009685E+03    0.13174E-05   -0.14252E-04   704   0.217E-02    0.408E-03
DAV:   2    -0.872604009899E+03   -0.21399E-06   -0.30233E-06   616   0.310E-03
  96 F= -.87260401E+03 E0= -.87260401E+03  d E =0.117787E-05
 BRION: g(F)=  0.397E-04 g(S)=  0.000E+00 retain N=  3 mean eig= 1.67
 eig:   0.923  0.010  4.073
 bond charge predicted
       N       E                     dE             d eps       ncg     rms          rms(c)
DAV:   1    -0.872604018893E+03   -0.92084E-05   -0.11022E-04   664   0.177E-02    0.306E-03
DAV:   2    -0.872604019053E+03   -0.16019E-06   -0.19172E-06   520   0.239E-03
  97 F= -.87260402E+03 E0= -.87260402E+03  d E =-.915459E-05
 BRION: g(F)=  0.338E-04 g(S)=  0.000E+00 retain N=  1 mean eig= 0.22
 eig:   0.225
 bond charge predicted
       N       E                     dE             d eps       ncg     rms          rms(c)
DAV:   1    -0.872604053042E+03   -0.34149E-04   -0.98775E-04   712   0.524E-02    0.956E-03
DAV:   2    -0.872604054070E+03   -0.10280E-05   -0.13213E-05   776   0.617E-03    0.558E-03
DAV:   3    -0.872604053927E+03    0.14286E-06   -0.35747E-07   496   0.160E-03
  98 F= -.87260405E+03 E0= -.87260405E+03  d E =-.348738E-04
 BRION: g(F)=  0.379E-04 g(S)=  0.000E+00 retain N=  2 mean eig= 0.25
 eig:   0.254  0.254
 bond charge predicted
       N       E                     dE             d eps       ncg     rms          rms(c)
DAV:   1    -0.872604061412E+03   -0.73420E-05   -0.63768E-05   664   0.137E-02    0.275E-03
DAV:   2    -0.872604061478E+03   -0.65898E-07   -0.10595E-06   440   0.192E-03
  99 F= -.87260406E+03 E0= -.87260406E+03  d E =-.755071E-05
 BRION: g(F)=  0.345E-04 g(S)=  0.000E+00 retain N=  1 mean eig= 0.24
 eig:   0.240
 bond charge predicted
       N       E                     dE             d eps       ncg     rms          rms(c)
DAV:   1    -0.872604097523E+03   -0.36111E-04   -0.12475E-03   712   0.584E-02    0.102E-02
DAV:   2    -0.872604098856E+03   -0.13330E-05   -0.16521E-05   792   0.679E-03    0.604E-03
DAV:   3    -0.872604098715E+03    0.14080E-06   -0.43113E-07   512   0.148E-03
 100 F= -.87260410E+03 E0= -.87260410E+03  d E =-.372371E-04
 BRION: g(F)=  0.361E-04 g(S)=  0.000E+00 retain N=  2 mean eig= 0.08
 eig:   0.121  0.035
 bond charge predicted
       N       E                     dE             d eps       ncg     rms          rms(c)
DAV:   1    -0.872604107369E+03   -0.85129E-05   -0.72486E-05   648   0.146E-02    0.306E-03
DAV:   2    -0.872604107464E+03   -0.95526E-07   -0.12656E-06   464   0.201E-03
 101 F= -.87260411E+03 E0= -.87260411E+03  d E =-.874924E-05
 BRION: g(F)=  0.339E-04 g(S)=  0.000E+00 retain N=  2 mean eig= 3.21
 eig:   0.008  6.405
 bond charge predicted
       N       E                     dE             d eps       ncg     rms          rms(c)
DAV:   1    -0.872604134855E+03   -0.27486E-04   -0.62241E-04   712   0.409E-02    0.737E-03
DAV:   2    -0.872604135504E+03   -0.64954E-06   -0.79583E-06   760   0.466E-03
 102 F= -.87260414E+03 E0= -.87260414E+03  d E =-.280400E-04
 BRION: g(F)=  0.331E-04 g(S)=  0.000E+00 retain N=  3 mean eig= 2.47
 eig:   0.196  0.871  6.331
 bond charge predicted
       N       E                     dE             d eps       ncg     rms          rms(c)
DAV:   1    -0.872604164574E+03   -0.29719E-04   -0.64036E-04   704   0.413E-02    0.898E-03
DAV:   2    -0.872604165179E+03   -0.60545E-06   -0.84187E-06   792   0.496E-03
 103 F= -.87260417E+03 E0= -.87260417E+03  d E =-.296748E-04
 BRION: g(F)=  0.346E-04 g(S)=  0.000E+00 retain N=  4 mean eig= 2.18
 eig:   6.160  1.003  0.781  0.781
 bond charge predicted
       N       E                     dE             d eps       ncg     rms          rms(c)
DAV:   1    -0.872604297828E+03   -0.13325E-03   -0.16835E-02   704   0.210E-01    0.377E-02
DAV:   2    -0.872604314579E+03   -0.16750E-04   -0.20413E-04   768   0.236E-02    0.228E-02
DAV:   3    -0.872604313105E+03    0.14738E-05   -0.59347E-06   712   0.521E-03    0.802E-03
DAV:   4    -0.872604313232E+03   -0.12753E-06   -0.18834E-06   568   0.272E-03
 104 F= -.87260431E+03 E0= -.87260431E+03  d E =-.148053E-03
 BRION: g(F)=  0.371E-04 g(S)=  0.000E+00 retain N=  4 mean eig= 0.71
 eig:   1.050  1.050  0.310  0.426
 bond charge predicted
       N       E                     dE             d eps       ncg     rms          rms(c)
DAV:   1    -0.872604298672E+03    0.14433E-04   -0.23931E-04   704   0.280E-02    0.515E-03
DAV:   2    -0.872604298928E+03   -0.25651E-06   -0.38283E-06   680   0.368E-03
 105 F= -.87260430E+03 E0= -.87260430E+03  d E =0.143042E-04
 BRION: g(F)=  0.380E-04 g(S)=  0.000E+00 retain N=  3 mean eig= 1.79
 eig:   3.909  0.726  0.726
 bond charge predicted
       N       E                     dE             d eps       ncg     rms          rms(c)
DAV:   1    -0.872604136495E+03    0.16218E-03   -0.16291E-02   704   0.207E-01    0.363E-02
DAV:   2    -0.872604152868E+03   -0.16372E-04   -0.19832E-04   768   0.232E-02    0.222E-02
DAV:   3    -0.872604151411E+03    0.14560E-05   -0.56689E-06   712   0.513E-03    0.759E-03
DAV:   4    -0.872604151511E+03   -0.99040E-07   -0.17662E-06   568   0.267E-03
 106 F= -.87260415E+03 E0= -.87260415E+03  d E =0.147418E-03
 BRION: g(F)=  0.407E-04 g(S)=  0.000E+00 retain N=  4 mean eig= 3.36
 eig:   6.753  0.741  0.741  5.208
 bond charge predicted
       N       E                     dE             d eps       ncg     rms          rms(c)
DAV:   1    -0.872604156262E+03   -0.48508E-05   -0.15792E-05   672   0.639E-03    0.139E-03
DAV:   2    -0.872604156262E+03    0.16735E-09   -0.18601E-07   376   0.849E-04
 107 F= -.87260416E+03 E0= -.87260416E+03  d E =-.475159E-05
 BRION: g(F)=  0.389E-04 g(S)=  0.000E+00 retain N=  5 mean eig= 2.72
 eig:   6.738  5.087  0.224  0.781  0.781
 bond charge predicted
       N       E                     dE             d eps       ncg     rms          rms(c)
DAV:   1    -0.872604161868E+03   -0.56060E-05   -0.35508E-04   704   0.369E-02    0.498E-03
DAV:   2    -0.872604162516E+03   -0.64732E-06   -0.76618E-06   792   0.503E-03
 108 F= -.87260416E+03 E0= -.87260416E+03  d E =-.625345E-05
 BRION: g(F)=  0.394E-04 g(S)=  0.000E+00 retain N=  6 mean eig= 2.71
 eig:   7.826  4.896  1.670  0.851  0.851  0.139
 bond charge predicted
       N       E                     dE             d eps       ncg     rms          rms(c)
DAV:   1    -0.872604159777E+03    0.20908E-05   -0.17514E-04   704   0.258E-02    0.308E-03
DAV:   2    -0.872604160076E+03   -0.29808E-06   -0.36005E-06   552   0.348E-03
 109 F= -.87260416E+03 E0= -.87260416E+03  d E =0.244003E-05
 BRION: g(F)=  0.364E-04 g(S)=  0.000E+00 retain N=  4 mean eig= 1.57
 eig:   1.508  1.153  0.055  3.555
 bond charge predicted
       N       E                     dE             d eps       ncg     rms          rms(c)
DAV:   1    -0.872604203747E+03   -0.43969E-04   -0.18376E-03   704   0.710E-02    0.122E-02
DAV:   2    -0.872604205572E+03   -0.18251E-05   -0.22752E-05   776   0.807E-03    0.732E-03
DAV:   3    -0.872604205347E+03    0.22445E-06   -0.63872E-07   544   0.197E-03
 110 F= -.87260421E+03 E0= -.87260421E+03  d E =-.452717E-04
 BRION: g(F)=  0.381E-04 g(S)=  0.000E+00 retain N=  5 mean eig= 1.50
 eig:   2.879  2.465  1.574  0.109  0.462
 bond charge predicted
       N       E                     dE             d eps       ncg     rms          rms(c)
DAV:   1    -0.872604208828E+03   -0.32567E-05   -0.13810E-04   712   0.229E-02    0.374E-03
DAV:   2    -0.872604209029E+03   -0.20101E-06   -0.27924E-06   592   0.319E-03
 111 F= -.87260421E+03 E0= -.87260421E+03  d E =-.368211E-05
 BRION: g(F)=  0.356E-04 g(S)=  0.000E+00 retain N=  3 mean eig= 2.59
 eig:   6.988  0.281  0.513
 bond charge predicted
       N       E                     dE             d eps       ncg     rms          rms(c)
DAV:   1    -0.872604234030E+03   -0.25202E-04   -0.11425E-03   712   0.632E-02    0.804E-03
DAV:   2    -0.872604235811E+03   -0.17805E-05   -0.20238E-05   776   0.792E-03    0.447E-03
DAV:   3    -0.872604235681E+03    0.12988E-06   -0.35470E-07   464   0.138E-03
 112 F= -.87260424E+03 E0= -.87260424E+03  d E =-.266515E-04
 BRION: g(F)=  0.355E-04 g(S)=  0.000E+00 retain N=  3 mean eig= 2.83
 eig:   7.486  0.510  0.499
 bond charge predicted
       N       E                     dE             d eps       ncg     rms          rms(c)
DAV:   1    -0.872604264358E+03   -0.28547E-04   -0.55691E-04   704   0.352E-02    0.764E-03
DAV:   2    -0.872604264816E+03   -0.45799E-06   -0.61024E-06   720   0.401E-03
 113 F= -.87260426E+03 E0= -.87260426E+03  d E =-.291349E-04
 BRION: g(F)=  0.333E-04 g(S)=  0.000E+00 retain N=  3 mean eig= 0.71
 eig:   0.232  0.955  0.955
 bond charge predicted
       N       E                     dE             d eps       ncg     rms          rms(c)
DAV:   1    -0.872604317491E+03   -0.53133E-04   -0.28831E-03   704   0.915E-02    0.166E-02
DAV:   2    -0.872604320842E+03   -0.33514E-05   -0.41716E-05   784   0.110E-02    0.948E-03
DAV:   3    -0.872604320431E+03    0.41111E-06   -0.10490E-06   568   0.245E-03
 114 F= -.87260432E+03 E0= -.87260432E+03  d E =-.556154E-04
 BRION: g(F)=  0.438E-04 g(S)=  0.000E+00 retain N=  4 mean eig= 1.66
 eig:   5.917  0.204  0.307  0.232
 bond charge predicted
       N       E                     dE             d eps       ncg     rms          rms(c)
DAV:   1    -0.872604479586E+03   -0.15874E-03   -0.25628E-02   712   0.259E-01    0.442E-02
DAV:   2    -0.872604506292E+03   -0.26707E-04   -0.31676E-04   768   0.292E-02    0.267E-02
DAV:   3    -0.872604504257E+03    0.20354E-05   -0.86808E-06   744   0.614E-03    0.974E-03
DAV:   4    -0.872604504384E+03   -0.12693E-06   -0.26972E-06   584   0.337E-03
 115 F= -.87260450E+03 E0= -.87260450E+03  d E =-.183953E-03
 BRION: g(F)=  0.347E-04 g(S)=  0.000E+00 retain N=  4 mean eig= 4.15
 eig:   7.588  7.588  0.713  0.713
 bond charge predicted
       N       E                     dE             d eps       ncg     rms          rms(c)
DAV:   1    -0.872604505129E+03   -0.87194E-06   -0.50923E-05   720   0.139E-02    0.333E-03
DAV:   2    -0.872604505203E+03   -0.74397E-07   -0.14883E-06   536   0.244E-03
 116 F= -.87260451E+03 E0= -.87260451E+03  d E =-.819411E-06
 BRION: g(F)=  0.370E-04 g(S)=  0.000E+00 retain N=  3 mean eig= 2.47
 eig:   0.685  0.685  6.044
 bond charge predicted
       N       E                     dE             d eps       ncg     rms          rms(c)
DAV:   1    -0.872604322624E+03    0.18250E-03   -0.20856E-02   704   0.237E-01    0.387E-02
DAV:   2    -0.872604345026E+03   -0.22402E-04   -0.26458E-04   768   0.269E-02    0.237E-02
DAV:   3    -0.872604343218E+03    0.18076E-05   -0.69729E-06   728   0.552E-03    0.875E-03
DAV:   4    -0.872604343299E+03   -0.80108E-07   -0.23247E-06   568   0.308E-03
 117 F= -.87260434E+03 E0= -.87260434E+03  d E =0.161905E-03
 BRION: g(F)=  0.397E-04 g(S)=  0.000E+00 retain N=  3 mean eig= 1.86
 eig:   1.612  1.133  2.840
 bond charge predicted
       N       E                     dE             d eps       ncg     rms          rms(c)
DAV:   1    -0.872604468329E+03   -0.12511E-03   -0.15087E-02   704   0.199E-01    0.334E-02
DAV:   2    -0.872604483909E+03   -0.15580E-04   -0.18684E-04   768   0.225E-02    0.205E-02
DAV:   3    -0.872604482432E+03    0.14762E-05   -0.52328E-06   720   0.490E-03    0.738E-03
DAV:   4    -0.872604482484E+03   -0.51645E-07   -0.16864E-06   560   0.266E-03
 118 F= -.87260448E+03 E0= -.87260448E+03  d E =-.139186E-03
 BRION: g(F)=  0.399E-04 g(S)=  0.000E+00 retain N=  4 mean eig= 1.76
 eig:   1.763  1.105  2.095  2.095
 bond charge predicted
       N       E                     dE             d eps       ncg     rms          rms(c)
DAV:   1    -0.872604532295E+03   -0.49863E-04   -0.18095E-03   704   0.668E-02    0.134E-02
DAV:   2    -0.872604534131E+03   -0.18360E-05   -0.23247E-05   768   0.812E-03    0.758E-03
DAV:   3    -0.872604533914E+03    0.21705E-06   -0.66386E-07   560   0.225E-03
 119 F= -.87260453E+03 E0= -.87260453E+03  d E =-.514299E-04
 BRION: g(F)=  0.374E-04 g(S)=  0.000E+00 retain N=  5 mean eig= 1.52
 eig:   2.448  1.481  1.481  1.093  1.093
 bond charge predicted
       N       E                     dE             d eps       ncg     rms          rms(c)
DAV:   1    -0.872604608912E+03   -0.74780E-04   -0.43067E-03   704   0.102E-01    0.189E-02
DAV:   2    -0.872604612982E+03   -0.40705E-05   -0.49188E-05   768   0.112E-02    0.114E-02
DAV:   3    -0.872604612685E+03    0.29677E-06   -0.14219E-06   568   0.249E-03
 120 F= -.87260461E+03 E0= -.87260461E+03  d E =-.787712E-04
 BRION: g(F)=  0.357E-04 g(S)=  0.000E+00 retain N=  6 mean eig= 2.34
 eig:   5.130  5.130  0.615  1.238  1.238  0.707
 bond charge predicted
       N       E                     dE             d eps       ncg     rms          rms(c)
DAV:   1    -0.872604660345E+03   -0.47363E-04   -0.16491E-03   712   0.628E-02    0.119E-02
DAV:   2    -0.872604661925E+03   -0.15800E-05   -0.18583E-05   768   0.684E-03    0.708E-03
DAV:   3    -0.872604661849E+03    0.75946E-07   -0.49876E-07   536   0.145E-03
 121 F= -.87260466E+03 E0= -.87260466E+03  d E =-.491639E-04
 BRION: g(F)=  0.356E-04 g(S)=  0.000E+00 retain N=  7 mean eig= 2.41
 eig:   6.477  6.477  0.426  0.426  1.186  1.186  0.714
 bond charge predicted
       N       E                     dE             d eps       ncg     rms          rms(c)
DAV:   1    -0.872604704298E+03   -0.42373E-04   -0.13387E-03   712   0.569E-02    0.105E-02
DAV:   2    -0.872604705593E+03   -0.12947E-05   -0.15267E-05   760   0.622E-03    0.632E-03
DAV:   3    -0.872604705515E+03    0.77765E-07   -0.40660E-07   512   0.133E-03
 122 F= -.87260471E+03 E0= -.87260471E+03  d E =-.436662E-04
 BRION: g(F)=  0.354E-04 g(S)=  0.000E+00 retain N=  8 mean eig= 2.51
 eig:   7.268  7.268  0.968  0.968  1.208  1.208  0.583  0.583
 bond charge predicted
       N       E                     dE             d eps       ncg     rms          rms(c)
DAV:   1    -0.872604745080E+03   -0.39487E-04   -0.11538E-03   704   0.528E-02    0.973E-03
DAV:   2    -0.872604746196E+03   -0.11157E-05   -0.13180E-05   752   0.578E-03    0.587E-03
DAV:   3    -0.872604746128E+03    0.67332E-07   -0.34324E-07   480   0.123E-03
 123 F= -.87260475E+03 E0= -.87260475E+03  d E =-.406129E-04
 BRION: g(F)=  0.351E-04 g(S)=  0.000E+00 retain N=  9 mean eig= 2.63
 eig:   7.729  7.729  1.534  1.534  0.953  1.162  1.162  0.940  0.940
 bond charge predicted
       N       E                     dE             d eps       ncg     rms          rms(c)
DAV:   1    -0.872604881842E+03   -0.13565E-03   -0.16095E-02   704   0.198E-01    0.361E-02
DAV:   2    -0.872604897373E+03   -0.15531E-04   -0.18542E-04   768   0.218E-02    0.219E-02
DAV:   3    -0.872604896215E+03    0.11579E-05   -0.52936E-06   720   0.462E-03    0.692E-03
DAV:   4    -0.872604896313E+03   -0.98917E-07   -0.12330E-06   528   0.214E-03
 124 F= -.87260490E+03 E0= -.87260490E+03  d E =-.150185E-03
 BRION: g(F)=  0.345E-04 g(S)=  0.000E+00 retain N= 10 mean eig= 2.67
 eig:   6.599  6.599  3.168  3.168  1.044  1.551  1.551  0.991  1.027  1.027
 bond charge predicted
       N       E                     dE             d eps       ncg     rms          rms(c)
DAV:   1    -0.872605080141E+03   -0.18393E-03   -0.32566E-02   704   0.279E-01    0.516E-02
DAV:   2    -0.872605111383E+03   -0.31241E-04   -0.37337E-04   768   0.308E-02    0.314E-02
DAV:   3    -0.872605109163E+03    0.22194E-05   -0.10776E-05   728   0.661E-03    0.958E-03
DAV:   4    -0.872605109393E+03   -0.22993E-06   -0.24181E-06   576   0.289E-03
 125 F= -.87260511E+03 E0= -.87260511E+03  d E =-.213080E-03
 BRION: g(F)=  0.349E-04 g(S)=  0.000E+00 retain N=  9 mean eig= 2.96
 eig:   7.627  7.627  2.886  2.886  1.506  1.506  0.950  0.950  0.743
 bond charge predicted
       N       E                     dE             d eps       ncg     rms          rms(c)
DAV:   1    -0.872605318833E+03   -0.20967E-03   -0.46744E-02   704   0.336E-01    0.617E-02
DAV:   2    -0.872605364486E+03   -0.45653E-04   -0.54359E-04   768   0.373E-02    0.374E-02
DAV:   3    -0.872605361278E+03    0.32078E-05   -0.15362E-05   768   0.797E-03    0.119E-02
DAV:   4    -0.872605361608E+03   -0.33032E-06   -0.37285E-06   648   0.365E-03
 126 F= -.87260536E+03 E0= -.87260536E+03  d E =-.252215E-03
 BRION: g(F)=  0.386E-04 g(S)=  0.000E+00 retain N=  8 mean eig= 2.17
 eig:   5.649  5.649  1.570  1.570  0.878  0.878  0.587  0.587
 bond charge predicted
       N       E                     dE             d eps       ncg     rms          rms(c)
DAV:   1    -0.872605176416E+03    0.18486E-03   -0.20817E-02   704   0.226E-01    0.411E-02
DAV:   2    -0.872605195957E+03   -0.19541E-04   -0.23920E-04   768   0.249E-02    0.250E-02
DAV:   3    -0.872605193987E+03    0.19704E-05   -0.73408E-06   728   0.564E-03    0.803E-03
DAV:   4    -0.872605194067E+03   -0.80094E-07   -0.18548E-06   568   0.267E-03
 127 F= -.87260519E+03 E0= -.87260519E+03  d E =0.167542E-03
 BRION: g(F)=  0.413E-04 g(S)=  0.000E+00 retain N=  9 mean eig= 1.89
 eig:   5.268  5.268  1.673  1.673  0.865  0.865  0.563  0.563  0.275
 bond charge predicted
       N       E                     dE             d eps       ncg     rms          rms(c)
DAV:   1    -0.872605250153E+03   -0.56167E-04   -0.24865E-03   704   0.786E-02    0.140E-02
DAV:   2    -0.872605252461E+03   -0.23079E-05   -0.28789E-05   768   0.868E-03    0.857E-03
DAV:   3    -0.872605252177E+03    0.28462E-06   -0.83602E-07   552   0.199E-03
 128 F= -.87260525E+03 E0= -.87260525E+03  d E =-.581100E-04
 BRION: g(F)=  0.345E-04 g(S)=  0.000E+00 retain N= 10 mean eig= 2.25
 eig:   7.583  7.583  1.641  1.641  1.272  0.786  0.786  0.545  0.545  0.160
 bond charge predicted
       N       E                     dE             d eps       ncg     rms          rms(c)
DAV:   1    -0.872605539523E+03   -0.28706E-03   -0.10482E-01   704   0.499E-01    0.926E-02
DAV:   2    -0.872605638183E+03   -0.98660E-04   -0.11842E-03   768   0.546E-02    0.564E-02
DAV:   3    -0.872605630481E+03    0.77016E-05   -0.34957E-05   808   0.118E-02    0.168E-02
DAV:   4    -0.872605631168E+03   -0.68711E-06   -0.78461E-06   776   0.504E-03
 129 F= -.87260563E+03 E0= -.87260563E+03  d E =-.378992E-03
 BRION: g(F)=  0.343E-04 g(S)=  0.000E+00 retain N=  5 mean eig= 1.90
 eig:   3.132  3.132  1.180  1.016  1.016
 bond charge predicted
       N       E                     dE             d eps       ncg     rms          rms(c)
DAV:   1    -0.872605613918E+03    0.16564E-04   -0.46102E-04   704   0.394E-02    0.674E-03
DAV:   2    -0.872605614502E+03   -0.58408E-06   -0.84254E-06   808   0.537E-03
 130 F= -.87260561E+03 E0= -.87260561E+03  d E =0.166667E-04
 BRION: g(F)=  0.374E-04 g(S)=  0.000E+00 retain N=  6 mean eig= 1.60
 eig:   2.917  1.624  1.624  1.176  1.137  1.137
 bond charge predicted
       N       E                     dE             d eps       ncg     rms          rms(c)
DAV:   1    -0.872605803373E+03   -0.18946E-03   -0.36819E-02   704   0.296E-01    0.536E-02
DAV:   2    -0.872605839115E+03   -0.35743E-04   -0.42061E-04   768   0.325E-02    0.326E-02
DAV:   3    -0.872605836672E+03    0.24435E-05   -0.11726E-05   736   0.678E-03    0.103E-02
DAV:   4    -0.872605836905E+03   -0.23294E-06   -0.26250E-06   576   0.304E-03
 131 F= -.87260584E+03 E0= -.87260584E+03  d E =-.222403E-03
 BRION: g(F)=  0.321E-04 g(S)=  0.000E+00 retain N=  7 mean eig= 3.11
 eig:   7.957  7.957  1.615  1.615  1.055  1.055  0.548
 bond charge predicted
       N       E                     dE             d eps       ncg     rms          rms(c)
DAV:   1    -0.872606084722E+03   -0.24805E-03   -0.72787E-02   704   0.413E-01    0.779E-02
DAV:   2    -0.872606153135E+03   -0.68413E-04   -0.81830E-04   768   0.451E-02    0.473E-02
DAV:   3    -0.872606148108E+03    0.50272E-05   -0.24082E-05   800   0.983E-03    0.139E-02
DAV:   4    -0.872606148639E+03   -0.53102E-06   -0.52679E-06   728   0.416E-03
 132 F= -.87260615E+03 E0= -.87260615E+03  d E =-.311734E-03
 BRION: g(F)=  0.330E-04 g(S)=  0.000E+00 retain N=  3 mean eig= 2.38
 eig:   0.547  3.729  2.856
 bond charge predicted
       N       E                     dE             d eps       ncg     rms          rms(c)
DAV:   1    -0.872605972601E+03    0.17551E-03   -0.19630E-02   704   0.216E-01    0.400E-02
DAV:   2    -0.872605990275E+03   -0.17674E-04   -0.21885E-04   768   0.235E-02    0.246E-02
DAV:   3    -0.872605988421E+03    0.18540E-05   -0.71892E-06   720   0.534E-03    0.715E-03
DAV:   4    -0.872605988513E+03   -0.92128E-07   -0.14502E-06   552   0.226E-03
 133 F= -.87260599E+03 E0= -.87260599E+03  d E =0.160125E-03
 BRION: g(F)=  0.393E-04 g(S)=  0.000E+00 retain N=  4 mean eig= 1.90
 eig:   0.518  2.502  2.502  2.060
 bond charge predicted
       N       E                     dE             d eps       ncg     rms          rms(c)
DAV:   1    -0.872606025739E+03   -0.37318E-04   -0.10987E-03   704   0.520E-02    0.975E-03
DAV:   2    -0.872606026763E+03   -0.10238E-05   -0.13125E-05   752   0.595E-03    0.577E-03
DAV:   3    -0.872606026611E+03    0.15175E-06   -0.40865E-07   512   0.152E-03
 134 F= -.87260603E+03 E0= -.87260603E+03  d E =-.380977E-04
 BRION: g(F)=  0.333E-04 g(S)=  0.000E+00 retain N=  3 mean eig= 1.02
 eig:   0.919  0.919  1.210
 bond charge predicted
       N       E                     dE             d eps       ncg     rms          rms(c)
DAV:   1    -0.872605996436E+03    0.30327E-04   -0.66473E-04   704   0.400E-02    0.823E-03
DAV:   2    -0.872605997062E+03   -0.62617E-06   -0.84726E-06   792   0.492E-03
 135 F= -.87260600E+03 E0= -.87260600E+03  d E =0.295493E-04
 BRION: g(F)=  0.358E-04 g(S)=  0.000E+00 retain N=  4 mean eig= 1.70
 eig:   4.864  0.248  0.843  0.843
 bond charge predicted
       N       E                     dE             d eps       ncg     rms          rms(c)
DAV:   1    -0.872605988608E+03    0.78279E-05   -0.58675E-05   664   0.127E-02    0.412E-03
DAV:   2    -0.872605988629E+03   -0.21173E-07   -0.76344E-07   520   0.161E-03
 136 F= -.87260599E+03 E0= -.87260599E+03  d E =0.843291E-05
 BRION: g(F)=  0.363E-04 g(S)=  0.000E+00 retain N=  4 mean eig= 1.57
 eig:   2.364  2.364  1.230  0.338
 bond charge predicted
       N       E                     dE             d eps       ncg     rms          rms(c)
DAV:   1    -0.872606113543E+03   -0.12494E-03   -0.13631E-02   704   0.175E-01    0.349E-02
DAV:   2    -0.872606125381E+03   -0.11838E-04   -0.14806E-04   768   0.195E-02    0.208E-02
DAV:   3    -0.872606123980E+03    0.14008E-05   -0.48447E-06   728   0.526E-03    0.664E-03
DAV:   4    -0.872606123984E+03   -0.35652E-08   -0.13649E-06   536   0.284E-03
 137 F= -.87260612E+03 E0= -.87260612E+03  d E =-.135355E-03
 BRION: g(F)=  0.571E-04 g(S)=  0.000E+00 retain N=  5 mean eig= 1.86
 eig:   3.742  3.742  0.829  0.506  0.506
 bond charge predicted
       N       E                     dE             d eps       ncg     rms          rms(c)
DAV:   1    -0.872606198751E+03   -0.74771E-04   -0.45644E-03   704   0.103E-01    0.228E-02
DAV:   2    -0.872606202482E+03   -0.37311E-05   -0.52293E-05   808   0.123E-02    0.125E-02
DAV:   3    -0.872606201742E+03    0.74012E-06   -0.19306E-06   592   0.381E-03
 138 F= -.87260620E+03 E0= -.87260620E+03  d E =-.777583E-04
 BRION: g(F)=  0.441E-04 g(S)=  0.000E+00 retain N=  4 mean eig= 2.18
 eig:   6.613  1.345  0.276  0.493
 bond charge predicted
       N       E                     dE             d eps       ncg     rms          rms(c)
DAV:   1    -0.872606141990E+03    0.60492E-04   -0.28789E-03   704   0.856E-02    0.172E-02
DAV:   2    -0.872606144748E+03   -0.27578E-05   -0.38524E-05   792   0.107E-02    0.949E-03
DAV:   3    -0.872606144150E+03    0.59767E-06   -0.13171E-06   568   0.295E-03
 139 F= -.87260614E+03 E0= -.87260614E+03  d E =0.575920E-04
 BRION: g(F)=  0.514E-04 g(S)=  0.000E+00 retain N=  3 mean eig= 1.25
 eig:   2.872  0.438  0.438
 bond charge predicted
       N       E                     dE             d eps       ncg     rms          rms(c)
DAV:   1    -0.872606089477E+03    0.55271E-04   -0.25235E-03   704   0.787E-02    0.177E-02
DAV:   2    -0.872606091791E+03   -0.23141E-05   -0.34476E-05   808   0.102E-02    0.959E-03
DAV:   3    -0.872606091221E+03    0.56991E-06   -0.13243E-06   568   0.306E-03
 140 F= -.87260609E+03 E0= -.87260609E+03  d E =0.529290E-04
 BRION: g(F)=  0.439E-04 g(S)=  0.000E+00 retain N=  4 mean eig= 1.21
 eig:   3.934  0.430  0.430  0.037
 bond charge predicted
       N       E                     dE             d eps       ncg     rms          rms(c)
DAV:   1    -0.872606092773E+03   -0.98236E-06   -0.20534E-04   704   0.283E-02    0.689E-03
DAV:   2    -0.872606093095E+03   -0.32190E-06   -0.65032E-06   720   0.488E-03
 141 F= -.87260609E+03 E0= -.87260609E+03  d E =-.187418E-05
 BRION: g(F)=  0.321E-04 g(S)=  0.000E+00 retain N=  4 mean eig= 1.72
 eig:   5.969  0.373  0.271  0.271
 bond charge predicted
       N       E                     dE             d eps       ncg     rms          rms(c)
DAV:   1    -0.872606120627E+03   -0.27854E-04   -0.86161E-04   704   0.506E-02    0.775E-03
DAV:   2    -0.872606121656E+03   -0.10284E-05   -0.12784E-05   784   0.611E-03    0.459E-03
DAV:   3    -0.872606121542E+03    0.11324E-06   -0.32464E-07   472   0.145E-03
 142 F= -.87260612E+03 E0= -.87260612E+03  d E =-.284472E-04
 BRION: g(F)=  0.323E-04 g(S)=  0.000E+00 retain N=  5 mean eig= 1.51
 eig:   6.022  0.560  0.560  0.205  0.205
 bond charge predicted
       N       E                     dE             d eps       ncg     rms          rms(c)
DAV:   1    -0.872606137973E+03   -0.16318E-04   -0.26067E-04   704   0.271E-02    0.523E-03
DAV:   2    -0.872606138246E+03   -0.27272E-06   -0.37613E-06   640   0.342E-03
 143 F= -.87260614E+03 E0= -.87260614E+03  d E =-.167036E-04
 BRION: g(F)=  0.307E-04 g(S)=  0.000E+00 retain N=  6 mean eig= 2.38
 eig:   7.552  5.601  0.433  0.010  0.340  0.340
 bond charge predicted
       N       E                     dE             d eps       ncg     rms          rms(c)
DAV:   1    -0.872606265070E+03   -0.12710E-03   -0.17006E-02   704   0.210E-01    0.372E-02
DAV:   2    -0.872606283030E+03   -0.17960E-04   -0.21210E-04   768   0.238E-02    0.226E-02
DAV:   3    -0.872606281657E+03    0.13730E-05   -0.59641E-06   720   0.507E-03    0.776E-03
DAV:   4    -0.872606281751E+03   -0.94020E-07   -0.16314E-06   552   0.252E-03
 144 F= -.87260628E+03 E0= -.87260628E+03  d E =-.143505E-03
 BRION: g(F)=  0.366E-04 g(S)=  0.000E+00 retain N=  5 mean eig= 1.76
 eig:   5.629  1.700  0.761  0.200  0.522
 bond charge predicted
       N       E                     dE             d eps       ncg     rms          rms(c)
DAV:   1    -0.872606319220E+03   -0.37563E-04   -0.19718E-03   704   0.785E-02    0.121E-02
DAV:   2    -0.872606322149E+03   -0.29289E-05   -0.33509E-05   784   0.998E-03    0.662E-03
DAV:   3    -0.872606321961E+03    0.18831E-06   -0.68312E-07   520   0.195E-03
 145 F= -.87260632E+03 E0= -.87260632E+03  d E =-.402097E-04
 BRION: g(F)=  0.367E-04 g(S)=  0.000E+00 retain N=  3 mean eig= 0.70
 eig:   0.539  0.539  1.015
 bond charge predicted
       N       E                     dE             d eps       ncg     rms          rms(c)
DAV:   1    -0.872606183965E+03    0.13818E-03   -0.13812E-02   704   0.195E-01    0.315E-02
DAV:   2    -0.872606200143E+03   -0.16179E-04   -0.18854E-04   768   0.228E-02    0.190E-02
DAV:   3    -0.872606198846E+03    0.12977E-05   -0.47341E-06   696   0.466E-03    0.812E-03
DAV:   4    -0.872606198825E+03    0.20766E-07   -0.18905E-06   552   0.291E-03
 146 F= -.87260620E+03 E0= -.87260620E+03  d E =0.123136E-03
 BRION: g(F)=  0.354E-04 g(S)=  0.000E+00 retain N=  3 mean eig= 2.30
 eig:   5.333  0.782  0.782
 bond charge predicted
       N       E                     dE             d eps       ncg     rms          rms(c)
DAV:   1    -0.872606199610E+03   -0.76382E-06   -0.24331E-06   536   0.308E-03    0.132E-03
DAV:   2    -0.872606199616E+03   -0.64319E-08   -0.16141E-07   376   0.869E-04
 147 F= -.87260620E+03 E0= -.87260620E+03  d E =-.791020E-06
 BRION: g(F)=  0.346E-04 g(S)=  0.000E+00 retain N=  4 mean eig= 1.85
 eig:   5.899  0.064  0.882  0.562
 bond charge predicted
       N       E                     dE             d eps       ncg     rms          rms(c)
DAV:   1    -0.872606185209E+03    0.14401E-04   -0.89524E-04   704   0.585E-02    0.641E-03
DAV:   2    -0.872606186826E+03   -0.16168E-05   -0.18363E-05   776   0.768E-03    0.298E-03
DAV:   3    -0.872606186698E+03    0.12798E-06   -0.27037E-07   408   0.125E-03
 148 F= -.87260619E+03 E0= -.87260619E+03  d E =0.129183E-04
 BRION: g(F)=  0.340E-04 g(S)=  0.000E+00 retain N=  5 mean eig= 2.18
 eig:   7.508  1.336  1.188  0.688  0.171
 bond charge predicted
[...]
 457 F= -.87261166E+03 E0= -.87261166E+03  d E =-.155788E-04
 BRION: g(F)=  0.206E-04 g(S)=  0.000E+00 retain N=  2 mean eig= 0.24
 eig:   0.388  0.084
 bond charge predicted
       N       E                     dE             d eps       ncg     rms          rms(c)
DAV:   1    -0.872611669114E+03   -0.55516E-05   -0.13518E-04   696   0.216E-02    0.662E-03
DAV:   2    -0.872611669395E+03   -0.28100E-06   -0.37441E-06   648   0.346E-03
 458 F= -.87261167E+03 E0= -.87261167E+03  d E =-.534380E-05
 BRION: g(F)=  0.173E-04 g(S)=  0.000E+00 retain N=  1 mean eig= 0.25
 eig:   0.252
 bond charge predicted
       N       E                     dE             d eps       ncg     rms          rms(c)
DAV:   1    -0.872611683391E+03   -0.14277E-04   -0.49662E-04   704   0.378E-02    0.901E-03
DAV:   2    -0.872611683830E+03   -0.43899E-06   -0.76646E-06   768   0.492E-03
 459 F= -.87261168E+03 E0= -.87261168E+03  d E =-.144348E-04
 BRION: g(F)=  0.205E-04 g(S)=  0.000E+00 retain N=  2 mean eig= 0.26
 eig:   0.152  0.367
 bond charge predicted
       N       E                     dE             d eps       ncg     rms          rms(c)
DAV:   1    -0.872611688754E+03   -0.53624E-05   -0.12674E-04   696   0.207E-02    0.648E-03
DAV:   2    -0.872611689007E+03   -0.25363E-06   -0.34858E-06   632   0.333E-03
 460 F= -.87261169E+03 E0= -.87261169E+03  d E =-.517708E-05
 BRION: g(F)=  0.170E-04 g(S)=  0.000E+00 retain N=  1 mean eig= 0.26
 eig:   0.257
 bond charge predicted
       N       E                     dE             d eps       ncg     rms          rms(c)
DAV:   1    -0.872611703455E+03   -0.14702E-04   -0.48887E-04   704   0.374E-02    0.893E-03
DAV:   2    -0.872611703891E+03   -0.43535E-06   -0.75449E-06   776   0.487E-03
 461 F= -.87261170E+03 E0= -.87261170E+03  d E =-.148836E-04
 BRION: g(F)=  0.205E-04 g(S)=  0.000E+00 retain N=  2 mean eig= 0.25
 eig:   0.138  0.367
 bond charge predicted
       N       E                     dE             d eps       ncg     rms          rms(c)
DAV:   1    -0.872611708725E+03   -0.52697E-05   -0.11806E-04   696   0.201E-02    0.620E-03
DAV:   2    -0.872611708965E+03   -0.24011E-06   -0.32581E-06   632   0.322E-03
 462 F= -.87261171E+03 E0= -.87261171E+03  d E =-.507446E-05
 BRION: g(F)=  0.171E-04 g(S)=  0.000E+00 retain N=  1 mean eig= 0.25
 eig:   0.254
 bond charge predicted
       N       E                     dE             d eps       ncg     rms          rms(c)
DAV:   1    -0.872611723349E+03   -0.14624E-04   -0.51503E-04   704   0.386E-02    0.923E-03
DAV:   2    -0.872611723795E+03   -0.44532E-06   -0.79453E-06   776   0.503E-03
 463 F= -.87261172E+03 E0= -.87261172E+03  d E =-.148294E-04
 BRION: g(F)=  0.209E-04 g(S)=  0.000E+00 retain N=  2 mean eig= 0.23
 eig:   0.367  0.103
 bond charge predicted
       N       E                     dE             d eps       ncg     rms          rms(c)
DAV:   1    -0.872611728570E+03   -0.52203E-05   -0.12107E-04   696   0.203E-02    0.637E-03
DAV:   2    -0.872611728812E+03   -0.24268E-06   -0.33237E-06   632   0.324E-03
 464 F= -.87261173E+03 E0= -.87261173E+03  d E =-.501761E-05
 BRION: g(F)=  0.173E-04 g(S)=  0.000E+00 retain N=  1 mean eig= 0.25
 eig:   0.253
 bond charge predicted
       N       E                     dE             d eps       ncg     rms          rms(c)
DAV:   1    -0.872611743480E+03   -0.14911E-04   -0.53158E-04   704   0.392E-02    0.941E-03
DAV:   2    -0.872611743944E+03   -0.46416E-06   -0.83077E-06   792   0.515E-03
 465 F= -.87261174E+03 E0= -.87261174E+03  d E =-.151323E-04
 BRION: g(F)=  0.211E-04 g(S)=  0.000E+00 retain N=  2 mean eig= 0.24
 eig:   0.387  0.086
 bond charge predicted
       N       E                     dE             d eps       ncg     rms          rms(c)
DAV:   1    -0.872611748936E+03   -0.54557E-05   -0.13817E-04   704   0.218E-02    0.672E-03
DAV:   2    -0.872611749225E+03   -0.28926E-06   -0.38771E-06   664   0.349E-03
 466 F= -.87261175E+03 E0= -.87261175E+03  d E =-.528076E-05
 BRION: g(F)=  0.173E-04 g(S)=  0.000E+00 retain N=  1 mean eig= 0.25
 eig:   0.255
 bond charge predicted
       N       E                     dE             d eps       ncg     rms          rms(c)
DAV:   1    -0.872611763260E+03   -0.14324E-04   -0.51751E-04   704   0.386E-02    0.949E-03
DAV:   2    -0.872611763696E+03   -0.43545E-06   -0.81506E-06   784   0.508E-03
 467 F= -.87261176E+03 E0= -.87261176E+03  d E =-.144706E-04
 BRION: g(F)=  0.216E-04 g(S)=  0.000E+00 retain N=  2 mean eig= 0.26
 eig:   0.146  0.367
 bond charge predicted
       N       E                     dE             d eps       ncg     rms          rms(c)
DAV:   1    -0.872611768834E+03   -0.55733E-05   -0.13839E-04   704   0.217E-02    0.677E-03
DAV:   2    -0.872611769122E+03   -0.28857E-06   -0.38992E-06   656   0.348E-03
 468 F= -.87261177E+03 E0= -.87261177E+03  d E =-.542645E-05
 BRION: g(F)=  0.172E-04 g(S)=  0.000E+00 retain N=  1 mean eig= 0.25
 eig:   0.252
 bond charge predicted
       N       E                     dE             d eps       ncg     rms          rms(c)
DAV:   1    -0.872611783809E+03   -0.14975E-04   -0.51953E-04   704   0.383E-02    0.929E-03
DAV:   2    -0.872611784235E+03   -0.42641E-06   -0.78865E-06   776   0.499E-03
 469 F= -.87261178E+03 E0= -.87261178E+03  d E =-.151128E-04
 BRION: g(F)=  0.209E-04 g(S)=  0.000E+00 retain N=  2 mean eig= 0.23
 eig:   0.371  0.098
 bond charge predicted
       N       E                     dE             d eps       ncg     rms          rms(c)
DAV:   1    -0.872611788888E+03   -0.50797E-05   -0.12938E-04   704   0.210E-02    0.652E-03
DAV:   2    -0.872611789154E+03   -0.26539E-06   -0.35871E-06   632   0.337E-03
 470 F= -.87261179E+03 E0= -.87261179E+03  d E =-.491866E-05
 BRION: g(F)=  0.173E-04 g(S)=  0.000E+00 retain N=  1 mean eig= 0.26
 eig:   0.260
 bond charge predicted
       N       E                     dE             d eps       ncg     rms          rms(c)
DAV:   1    -0.872611803491E+03   -0.14602E-04   -0.52924E-04   704   0.391E-02    0.959E-03
DAV:   2    -0.872611803932E+03   -0.44106E-06   -0.83024E-06   792   0.514E-03
 471 F= -.87261180E+03 E0= -.87261180E+03  d E =-.147781E-04
 BRION: g(F)=  0.216E-04 g(S)=  0.000E+00 retain N=  2 mean eig= 0.25
 eig:   0.372  0.131
 bond charge predicted
       N       E                     dE             d eps       ncg     rms          rms(c)
DAV:   1    -0.872611808896E+03   -0.54050E-05   -0.13803E-04   696   0.217E-02    0.680E-03
DAV:   2    -0.872611809184E+03   -0.28851E-06   -0.39178E-06   656   0.350E-03
 472 F= -.87261181E+03 E0= -.87261181E+03  d E =-.525246E-05
 BRION: g(F)=  0.170E-04 g(S)=  0.000E+00 retain N=  1 mean eig= 0.26
 eig:   0.263
 bond charge predicted
       N       E                     dE             d eps       ncg     rms          rms(c)
DAV:   1    -0.872611823535E+03   -0.14639E-04   -0.52444E-04   704   0.386E-02    0.936E-03
DAV:   2    -0.872611823976E+03   -0.44177E-06   -0.80443E-06   784   0.502E-03
 473 F= -.87261182E+03 E0= -.87261182E+03  d E =-.147922E-04
 BRION: g(F)=  0.208E-04 g(S)=  0.000E+00 retain N=  2 mean eig= 0.25
 eig:   0.376  0.127
 bond charge predicted
       N       E                     dE             d eps       ncg     rms          rms(c)
DAV:   1    -0.872611828912E+03   -0.53777E-05   -0.13475E-04   704   0.214E-02    0.665E-03
DAV:   2    -0.872611829189E+03   -0.27708E-06   -0.37564E-06   648   0.343E-03
 474 F= -.87261183E+03 E0= -.87261183E+03  d E =-.521301E-05
 BRION: g(F)=  0.169E-04 g(S)=  0.000E+00 retain N=  1 mean eig= 0.26
 eig:   0.258
 bond charge predicted
       N       E                     dE             d eps       ncg     rms          rms(c)
DAV:   1    -0.872611843455E+03   -0.14543E-04   -0.48974E-04   704   0.372E-02    0.911E-03
DAV:   2    -0.872611843850E+03   -0.39451E-06   -0.73605E-06   776   0.481E-03
 475 F= -.87261184E+03 E0= -.87261184E+03  d E =-.146604E-04
 BRION: g(F)=  0.202E-04 g(S)=  0.000E+00 retain N=  2 mean eig= 0.26
 eig:   0.138  0.374
 bond charge predicted
       N       E                     dE             d eps       ncg     rms          rms(c)
DAV:   1    -0.872611848706E+03   -0.52508E-05   -0.12380E-04   704   0.205E-02    0.649E-03
DAV:   2    -0.872611848949E+03   -0.24293E-06   -0.33820E-06   624   0.327E-03
 476 F= -.87261185E+03 E0= -.87261185E+03  d E =-.509922E-05
 BRION: g(F)=  0.167E-04 g(S)=  0.000E+00 retain N=  1 mean eig= 0.26
 eig:   0.262
 bond charge predicted
       N       E                     dE             d eps       ncg     rms          rms(c)
DAV:   1    -0.872611863172E+03   -0.14465E-04   -0.49063E-04   704   0.371E-02    0.904E-03
DAV:   2    -0.872611863580E+03   -0.40822E-06   -0.74116E-06   768   0.480E-03
 477 F= -.87261186E+03 E0= -.87261186E+03  d E =-.146306E-04
 BRION: g(F)=  0.201E-04 g(S)=  0.000E+00 retain N=  2 mean eig= 0.25
 eig:   0.378  0.124
 bond charge predicted
       N       E                     dE             d eps       ncg     rms          rms(c)
DAV:   1    -0.872611868392E+03   -0.52202E-05   -0.12584E-04   704   0.207E-02    0.644E-03
DAV:   2    -0.872611868647E+03   -0.25520E-06   -0.34585E-06   632   0.329E-03
 478 F= -.87261187E+03 E0= -.87261187E+03  d E =-.506719E-05
 BRION: g(F)=  0.168E-04 g(S)=  0.000E+00 retain N=  1 mean eig= 0.26
 eig:   0.256
 bond charge predicted
       N       E                     dE             d eps       ncg     rms          rms(c)
DAV:   1    -0.872611882496E+03   -0.14104E-04   -0.48481E-04   704   0.372E-02    0.920E-03
DAV:   2    -0.872611882889E+03   -0.39366E-06   -0.73980E-06   776   0.485E-03
 479 F= -.87261188E+03 E0= -.87261188E+03  d E =-.142423E-04
 BRION: g(F)=  0.202E-04 g(S)=  0.000E+00 retain N=  2 mean eig= 0.25
 eig:   0.120  0.380
 bond charge predicted
       N       E                     dE             d eps       ncg     rms          rms(c)
DAV:   1    -0.872611887691E+03   -0.51951E-05   -0.12879E-04   704   0.210E-02    0.663E-03
DAV:   2    -0.872611887945E+03   -0.25475E-06   -0.35620E-06   648   0.336E-03
 480 F= -.87261189E+03 E0= -.87261189E+03  d E =-.505619E-05
 BRION: g(F)=  0.167E-04 g(S)=  0.000E+00 retain N=  1 mean eig= 0.26
 eig:   0.265
 bond charge predicted
       N       E                     dE             d eps       ncg     rms          rms(c)
DAV:   1    -0.872611901927E+03   -0.14236E-04   -0.50613E-04   704   0.379E-02    0.928E-03
DAV:   2    -0.872611902357E+03   -0.42999E-06   -0.78638E-06   776   0.495E-03
 481 F= -.87261190E+03 E0= -.87261190E+03  d E =-.144111E-04
 BRION: g(F)=  0.205E-04 g(S)=  0.000E+00 retain N=  2 mean eig= 0.26
 eig:   0.373  0.139
 bond charge predicted
       N       E                     dE             d eps       ncg     rms          rms(c)
DAV:   1    -0.872611907126E+03   -0.51992E-05   -0.13317E-04   704   0.212E-02    0.661E-03
DAV:   2    -0.872611907411E+03   -0.28514E-06   -0.37525E-06   664   0.339E-03
 482 F= -.87261191E+03 E0= -.87261191E+03  d E =-.505436E-05
 BRION: g(F)=  0.175E-04 g(S)=  0.000E+00 retain N=  1 mean eig= 0.23
 eig:   0.232
 bond charge predicted
       N       E                     dE             d eps       ncg     rms          rms(c)
DAV:   1    -0.872611920949E+03   -0.13823E-04   -0.46085E-04   704   0.367E-02    0.951E-03
DAV:   2    -0.872611921315E+03   -0.36600E-06   -0.77417E-06   808   0.518E-03
 483 F= -.87261192E+03 E0= -.87261192E+03  d E =-.139042E-04
 BRION: g(F)=  0.219E-04 g(S)=  0.000E+00 retain N=  2 mean eig= 0.22
 eig:   0.040  0.401
 bond charge predicted
       N       E                     dE             d eps       ncg     rms          rms(c)
DAV:   1    -0.872611926325E+03   -0.53763E-05   -0.17831E-04   704   0.257E-02    0.754E-03
DAV:   2    -0.872611926696E+03   -0.37032E-06   -0.52841E-06   688   0.423E-03
 484 F= -.87261193E+03 E0= -.87261193E+03  d E =-.538060E-05
 BRION: g(F)=  0.171E-04 g(S)=  0.000E+00 retain N=  1 mean eig= 0.28
 eig:   0.279
 bond charge predicted
       N       E                     dE             d eps       ncg     rms          rms(c)
DAV:   1    -0.872611939920E+03   -0.13594E-04   -0.59381E-04   704   0.415E-02    0.103E-02
DAV:   2    -0.872611940495E+03   -0.57571E-06   -0.10492E-05   808   0.565E-03    0.462E-03
DAV:   3    -0.872611940271E+03    0.22382E-06   -0.39288E-07   496   0.154E-03
 485 F= -.87261194E+03 E0= -.87261194E+03  d E =-.135758E-04
 BRION: g(F)=  0.265E-04 g(S)=  0.000E+00 retain N=  2 mean eig= 0.24
 eig:   0.322  0.158
 bond charge predicted
       N       E                     dE             d eps       ncg     rms          rms(c)
DAV:   1    -0.872611945143E+03   -0.46479E-05   -0.14673E-04   704   0.220E-02    0.621E-03
DAV:   2    -0.872611945367E+03   -0.22359E-06   -0.41943E-06   688   0.363E-03
 486 F= -.87261195E+03 E0= -.87261195E+03  d E =-.509532E-05
 BRION: g(F)=  0.164E-04 g(S)=  0.000E+00 retain N=  1 mean eig= 0.28
 eig:   0.281
 bond charge predicted
       N       E                     dE             d eps       ncg     rms          rms(c)
DAV:   1    -0.872611960332E+03   -0.15189E-04   -0.57945E-04   704   0.414E-02    0.964E-03
DAV:   2    -0.872611960827E+03   -0.49512E-06   -0.89755E-06   816   0.544E-03
 487 F= -.87261196E+03 E0= -.87261196E+03  d E =-.154605E-04
 BRION: g(F)=  0.200E-04 g(S)=  0.000E+00 retain N=  2 mean eig= 0.26
 eig:   0.383  0.138
 bond charge predicted
       N       E                     dE             d eps       ncg     rms          rms(c)
DAV:   1    -0.872611965884E+03   -0.55517E-05   -0.14310E-04   712   0.224E-02    0.703E-03
DAV:   2    -0.872611966152E+03   -0.26786E-06   -0.38645E-06   648   0.354E-03
 488 F= -.87261197E+03 E0= -.87261197E+03  d E =-.532444E-05
 BRION: g(F)=  0.158E-04 g(S)=  0.000E+00 retain N=  1 mean eig= 0.27
 eig:   0.266
 bond charge predicted
       N       E                     dE             d eps       ncg     rms          rms(c)
DAV:   1    -0.872611980709E+03   -0.14825E-04   -0.42565E-04   704   0.339E-02    0.777E-03
DAV:   2    -0.872611981028E+03   -0.31885E-06   -0.54043E-06   712   0.404E-03
 489 F= -.87261198E+03 E0= -.87261198E+03  d E =-.148764E-04
 BRION: g(F)=  0.162E-04 g(S)=  0.000E+00 retain N=  2 mean eig= 0.28
 eig:   0.479  0.091
 bond charge predicted
       N       E                     dE             d eps       ncg     rms          rms(c)
DAV:   1    -0.872611987853E+03   -0.71440E-05   -0.13962E-04   704   0.209E-02    0.637E-03
DAV:   2    -0.872611988031E+03   -0.17769E-06   -0.27820E-06   632   0.300E-03
 490 F= -.87261199E+03 E0= -.87261199E+03  d E =-.700282E-05
 BRION: g(F)=  0.170E-04 g(S)=  0.000E+00 retain N=  2 mean eig= 2.17
 eig:   0.346  3.998
 bond charge predicted
       N       E                     dE             d eps       ncg     rms          rms(c)
DAV:   1    -0.872611989627E+03   -0.17736E-05   -0.40914E-05   664   0.113E-02    0.341E-03
DAV:   2    -0.872611989678E+03   -0.51434E-07   -0.11027E-06   456   0.187E-03
 491 F= -.87261199E+03 E0= -.87261199E+03  d E =-.164736E-05
 BRION: g(F)=  0.165E-04 g(S)=  0.000E+00 retain N=  2 mean eig= 0.13
 eig:   0.206  0.057
 bond charge predicted
       N       E                     dE             d eps       ncg     rms          rms(c)
DAV:   1    -0.872612000489E+03   -0.10862E-04   -0.19300E-04   688   0.214E-02    0.461E-03
DAV:   2    -0.872612000652E+03   -0.16308E-06   -0.21685E-06   544   0.246E-03
 492 F= -.87261200E+03 E0= -.87261200E+03  d E =-.109737E-04
 BRION: g(F)=  0.155E-04 g(S)=  0.000E+00 retain N=  3 mean eig= 0.49
 eig:   0.381  0.381  0.715
 bond charge predicted
       N       E                     dE             d eps       ncg     rms          rms(c)
DAV:   1    -0.872612018294E+03   -0.17805E-04   -0.51007E-04   704   0.344E-02    0.789E-03
DAV:   2    -0.872612018722E+03   -0.42801E-06   -0.59494E-06   712   0.408E-03
 493 F= -.87261202E+03 E0= -.87261202E+03  d E =-.180702E-04
 BRION: g(F)=  0.166E-04 g(S)=  0.000E+00 retain N=  4 mean eig= 0.87
 eig:   1.396  1.396  0.339  0.339
 bond charge predicted
       N       E                     dE             d eps       ncg     rms          rms(c)
DAV:   1    -0.872612074227E+03   -0.55933E-04   -0.57012E-03   704   0.114E-01    0.240E-02
DAV:   2    -0.872612078850E+03   -0.46236E-05   -0.61156E-05   784   0.124E-02    0.143E-02
DAV:   3    -0.872612078189E+03    0.66104E-06   -0.20850E-06   592   0.308E-03
 494 F= -.87261208E+03 E0= -.87261208E+03  d E =-.594673E-04
 BRION: g(F)=  0.172E-04 g(S)=  0.000E+00 retain N=  4 mean eig= 2.39
 eig:   7.035  0.261  1.141  1.141
 bond charge predicted
       N       E                     dE             d eps       ncg     rms          rms(c)
DAV:   1    -0.872612142812E+03   -0.63962E-04   -0.76281E-03   704   0.128E-01    0.257E-02
DAV:   2    -0.872612149184E+03   -0.63723E-05   -0.78845E-05   776   0.137E-02    0.156E-02
DAV:   3    -0.872612148609E+03    0.57525E-06   -0.25939E-06   608   0.314E-03
 495 F= -.87261215E+03 E0= -.87261215E+03  d E =-.704196E-04
 BRION: g(F)=  0.174E-04 g(S)=  0.000E+00 retain N=  4 mean eig= 1.03
 eig:   1.371  0.977  0.977  0.797
 bond charge predicted
       N       E                     dE             d eps       ncg     rms          rms(c)
DAV:   1    -0.872612065304E+03    0.83881E-04   -0.92007E-03   704   0.142E-01    0.282E-02
DAV:   2    -0.872612072760E+03   -0.74564E-05   -0.96971E-05   784   0.154E-02    0.172E-02
DAV:   3    -0.872612071640E+03    0.11201E-05   -0.33704E-06   640   0.379E-03    0.493E-03
DAV:   4    -0.872612071693E+03   -0.53231E-07   -0.89671E-07   504   0.174E-03
 496 F= -.87261207E+03 E0= -.87261207E+03  d E =0.769157E-04
 BRION: g(F)=  0.228E-04 g(S)=  0.000E+00 retain N=  5 mean eig= 1.68
 eig:   5.066  0.004  0.906  0.906  1.499
 bond charge predicted
       N       E                     dE             d eps       ncg     rms          rms(c)
DAV:   1    -0.872612095846E+03   -0.24206E-04   -0.96008E-04   704   0.476E-02    0.927E-03
DAV:   2    -0.872612096680E+03   -0.83484E-06   -0.10988E-05   776   0.538E-03    0.547E-03
DAV:   3    -0.872612096525E+03    0.15595E-06   -0.35213E-07   424   0.135E-03
 497 F= -.87261210E+03 E0= -.87261210E+03  d E =-.248312E-04
 BRION: g(F)=  0.171E-04 g(S)=  0.000E+00 retain N=  4 mean eig= 1.99
 eig:   6.280  0.486  0.125  1.084
 bond charge predicted
       N       E                     dE             d eps       ncg     rms          rms(c)
DAV:   1    -0.872612065731E+03    0.30950E-04   -0.13825E-03   704   0.571E-02    0.114E-02
DAV:   2    -0.872612067048E+03   -0.13173E-05   -0.17110E-05   776   0.692E-03    0.683E-03
DAV:   3    -0.872612066824E+03    0.22384E-06   -0.59365E-07   528   0.187E-03
 498 F= -.87261207E+03 E0= -.87261207E+03  d E =0.297005E-04
 BRION: g(F)=  0.191E-04 g(S)=  0.000E+00 retain N=  5 mean eig= 1.66
 eig:   6.537  0.882  0.362  0.430  0.091
 bond charge predicted
       N       E                     dE             d eps       ncg     rms          rms(c)
DAV:   1    -0.872612048646E+03    0.18401E-04   -0.53674E-04   704   0.348E-02    0.734E-03
DAV:   2    -0.872612049098E+03   -0.45171E-06   -0.60163E-06   704   0.400E-03
 499 F= -.87261205E+03 E0= -.87261205E+03  d E =0.177259E-04
 BRION: g(F)=  0.177E-04 g(S)=  0.000E+00 retain N=  4 mean eig= 2.52
 eig:   6.932  2.255  0.227  0.666
 bond charge predicted
       N       E                     dE             d eps       ncg     rms          rms(c)
DAV:   1    -0.872612146164E+03   -0.97518E-04   -0.18841E-02   704   0.201E-01    0.389E-02
DAV:   2    -0.872612161854E+03   -0.15690E-04   -0.19413E-04   776   0.214E-02    0.237E-02
DAV:   3    -0.872612160096E+03    0.17588E-05   -0.63472E-06   704   0.488E-03    0.638E-03
DAV:   4    -0.872612160184E+03   -0.88330E-07   -0.12390E-06   544   0.200E-03
 500 F= -.87261216E+03 E0= -.87261216E+03  d E =-.111086E-03
 BRION: g(F)=  0.206E-04 g(S)=  0.000E+00 retain N=  3 mean eig= 2.04
 eig:   2.404  2.404  1.307
Running "mpirun -np 48 vasp_neb"
