 running on   48 total cores
 distrk:  each k-point on   48 cores,    1 groups
 distr:  one band on    6 cores,    8 groups
 using from now: INCAR     
 vasp.5.4.1 05Feb16 (build Apr 25 2018 11:37:45) complex                        
  
 POSCAR found :  5 types and     112 ions
 LDA part: xc-table for Pade appr. of Perdew
 POSCAR found :  5 types and     112 ions
 POSCAR, INCAR and KPOINTS ok, starting setup
 WARNING: small aliasing (wrap around) errors must be expected
 FFT: planning ...
 WAVECAR not read
 WARNING: random wavefunctions but no delay for mixing, default for NELMDL
 entering main loop
       N       E                     dE             d eps       ncg     rms          rms(c)
DAV:   1     0.446714199466E+04    0.44671E+04   -0.24448E+05   752   0.116E+03
DAV:   2    -0.406782686644E+03   -0.48739E+04   -0.47714E+04   872   0.326E+02
DAV:   3    -0.975763914051E+03   -0.56898E+03   -0.56681E+03   816   0.120E+02
DAV:   4    -0.989180053686E+03   -0.13416E+02   -0.13378E+02   824   0.199E+01
DAV:   5    -0.989603910522E+03   -0.42386E+00   -0.42340E+00   832   0.319E+00    0.856E+01
DAV:   6    -0.873720182230E+03    0.11588E+03   -0.50673E+02   800   0.353E+01    0.396E+01
DAV:   7    -0.873204756571E+03    0.51543E+00   -0.16322E+01   912   0.600E+00    0.150E+01
DAV:   8    -0.872723511038E+03    0.48125E+00   -0.11506E+00   832   0.230E+00    0.601E+00
DAV:   9    -0.872580548340E+03    0.14296E+00   -0.44378E-01   824   0.144E+00    0.102E+00
DAV:  10    -0.872580856504E+03   -0.30816E-03   -0.85622E-02   808   0.619E-01    0.680E-01
DAV:  11    -0.872581583771E+03   -0.72727E-03   -0.21169E-02   784   0.301E-01    0.297E-01
DAV:  12    -0.872587905395E+03   -0.63216E-02   -0.72284E-03   792   0.215E-01    0.150E-01
DAV:  13    -0.872599409187E+03   -0.11504E-01   -0.44160E-03   800   0.182E-01    0.176E-01
DAV:  14    -0.872608924344E+03   -0.95152E-02   -0.23882E-03   800   0.116E-01    0.557E-02
DAV:  15    -0.872610890323E+03   -0.19660E-02   -0.45563E-04   824   0.484E-02    0.541E-02
DAV:  16    -0.872611450966E+03   -0.56064E-03   -0.13665E-04   824   0.265E-02    0.374E-02
DAV:  17    -0.872611763931E+03   -0.31297E-03   -0.86978E-05   800   0.174E-02    0.177E-02
DAV:  18    -0.872612084318E+03   -0.32039E-03   -0.25178E-05   784   0.912E-03    0.944E-03
DAV:  19    -0.872612123391E+03   -0.39073E-04   -0.85247E-06   744   0.676E-03    0.720E-03
DAV:  20    -0.872612138073E+03   -0.14682E-04   -0.31062E-06   624   0.362E-03    0.390E-03
DAV:  21    -0.872612155254E+03   -0.17180E-04   -0.17423E-06   576   0.237E-03    0.156E-03
DAV:  22    -0.872612159337E+03   -0.40837E-05   -0.92382E-07   528   0.203E-03    0.117E-03
DAV:  23    -0.872612159775E+03   -0.43746E-06   -0.17229E-07   536   0.829E-04
   1 F= -.87261216E+03 E0= -.87261216E+03  d E =-.872612E+03
 BRION: g(F)=  0.214E-04 g(S)=  0.000E+00
 bond charge predicted
       N       E                     dE             d eps       ncg     rms          rms(c)
DAV:   1    -0.872612168140E+03   -0.88025E-05   -0.14880E-03   752   0.694E-02    0.162E-02
DAV:   2    -0.872612170093E+03   -0.19528E-05   -0.32761E-05   808   0.107E-02    0.640E-03
DAV:   3    -0.872612169390E+03    0.70226E-06   -0.12136E-06   536   0.298E-03
   2 F= -.87261217E+03 E0= -.87261217E+03  d E =-.961559E-05
 BRION: g(F)=  0.631E-04 g(S)=  0.000E+00 retain N=  1 mean eig= 0.24
 eig:   0.239
 bond charge predicted
       N       E                     dE             d eps       ncg     rms          rms(c)
DAV:   1    -0.872612179622E+03   -0.95298E-05   -0.57042E-04   752   0.461E-02    0.118E-02
DAV:   2    -0.872612180561E+03   -0.93862E-06   -0.17867E-05   824   0.784E-03    0.421E-03
DAV:   3    -0.872612180149E+03    0.41204E-06   -0.61135E-07   496   0.219E-03
   3 F= -.87261218E+03 E0= -.87261218E+03  d E =-.107587E-04
 BRION: g(F)=  0.153E-04 g(S)=  0.000E+00 retain N=  1 mean eig= 0.29
 eig:   0.286
 bond charge predicted
       N       E                     dE             d eps       ncg     rms          rms(c)
DAV:   1    -0.872612194699E+03   -0.14138E-04   -0.48378E-04   736   0.363E-02    0.707E-03
DAV:   2    -0.872612195207E+03   -0.50780E-06   -0.68088E-06   744   0.452E-03
   4 F= -.87261220E+03 E0= -.87261220E+03  d E =-.150581E-04
 BRION: g(F)=  0.157E-04 g(S)=  0.000E+00 retain N=  2 mean eig= 0.30
 eig:   0.196  0.400
 bond charge predicted
       N       E                     dE             d eps       ncg     rms          rms(c)
DAV:   1    -0.872612201574E+03   -0.68745E-05   -0.11310E-04   752   0.194E-02    0.557E-03
DAV:   2    -0.872612201726E+03   -0.15192E-06   -0.24421E-06   616   0.293E-03
   5 F= -.87261220E+03 E0= -.87261220E+03  d E =-.651860E-05
 BRION: g(F)=  0.164E-04 g(S)=  0.000E+00 retain N=  3 mean eig= 0.98
 eig:   2.360  0.208  0.383
 bond charge predicted
       N       E                     dE             d eps       ncg     rms          rms(c)
DAV:   1    -0.872612204470E+03   -0.28958E-05   -0.12837E-05   688   0.563E-03    0.239E-03
DAV:   2    -0.872612204471E+03   -0.19063E-08   -0.18056E-07   400   0.829E-04
   6 F= -.87261220E+03 E0= -.87261220E+03  d E =-.274578E-05
 BRION: g(F)=  0.162E-04 g(S)=  0.000E+00 retain N=  3 mean eig= 2.49
 eig:   6.709  0.385  0.385
 bond charge predicted
       N       E                     dE             d eps       ncg     rms          rms(c)
DAV:   1    -0.872612194217E+03    0.10252E-04   -0.18993E-04   728   0.221E-02    0.398E-03
DAV:   2    -0.872612194394E+03   -0.17724E-06   -0.23409E-06   592   0.260E-03
   7 F= -.87261219E+03 E0= -.87261219E+03  d E =0.100771E-04
 BRION: g(F)=  0.180E-04 g(S)=  0.000E+00 retain N=  3 mean eig= 0.21
 eig:   0.353  0.212  0.060
 bond charge predicted
       N       E                     dE             d eps       ncg     rms          rms(c)
DAV:   1    -0.872612223082E+03   -0.28864E-04   -0.15532E-03   736   0.607E-02    0.102E-02
DAV:   2    -0.872612224598E+03   -0.15164E-05   -0.17881E-05   784   0.675E-03    0.621E-03
DAV:   3    -0.872612224463E+03    0.13468E-06   -0.43463E-07   528   0.140E-03
   8 F= -.87261222E+03 E0= -.87261222E+03  d E =-.300689E-04
 BRION: g(F)=  0.170E-04 g(S)=  0.000E+00 retain N=  4 mean eig= 1.28
 eig:   3.812  0.685  0.308  0.308
 bond charge predicted
       N       E                     dE             d eps       ncg     rms          rms(c)
DAV:   1    -0.872612261870E+03   -0.37272E-04   -0.26493E-03   720   0.796E-02    0.153E-02
DAV:   2    -0.872612264275E+03   -0.24058E-05   -0.30243E-05   784   0.892E-03    0.902E-03
DAV:   3    -0.872612263971E+03    0.30412E-06   -0.87883E-07   552   0.217E-03
   9 F= -.87261226E+03 E0= -.87261226E+03  d E =-.395081E-04
 BRION: g(F)=  0.202E-04 g(S)=  0.000E+00 retain N=  3 mean eig= 0.90
 eig:   0.488  1.100  1.100
 bond charge predicted
       N       E                     dE             d eps       ncg     rms          rms(c)
DAV:   1    -0.872612283587E+03   -0.19311E-04   -0.97250E-04   720   0.514E-02    0.105E-02
DAV:   2    -0.872612284579E+03   -0.99219E-06   -0.13511E-05   808   0.640E-03    0.519E-03
DAV:   3    -0.872612284404E+03    0.17456E-06   -0.44307E-07   512   0.169E-03
  10 F= -.87261228E+03 E0= -.87261228E+03  d E =-.204329E-04
 BRION: g(F)=  0.188E-04 g(S)=  0.000E+00 retain N=  4 mean eig= 0.94
 eig:   0.860  0.860  0.534  1.489
 bond charge predicted
       N       E                     dE             d eps       ncg     rms          rms(c)
DAV:   1    -0.872612309101E+03   -0.24522E-04   -0.11056E-03   720   0.522E-02    0.103E-02
DAV:   2    -0.872612310114E+03   -0.10131E-05   -0.13158E-05   784   0.604E-03    0.592E-03
DAV:   3    -0.872612309976E+03    0.13745E-06   -0.40388E-07   496   0.156E-03
  11 F= -.87261231E+03 E0= -.87261231E+03  d E =-.255721E-04
 BRION: g(F)=  0.158E-04 g(S)=  0.000E+00 retain N=  2 mean eig= 0.11
 eig:   0.082  0.134
 bond charge predicted
       N       E                     dE             d eps       ncg     rms          rms(c)
DAV:   1    -0.872612316266E+03   -0.61520E-05   -0.26711E-04   720   0.290E-02    0.621E-03
DAV:   2    -0.872612316617E+03   -0.35126E-06   -0.54003E-06   736   0.429E-03
  12 F= -.87261232E+03 E0= -.87261232E+03  d E =-.664074E-05
 BRION: g(F)=  0.207E-04 g(S)=  0.000E+00 retain N=  3 mean eig= 0.22
 eig:   0.234  0.234  0.177
 bond charge predicted
       N       E                     dE             d eps       ncg     rms          rms(c)
DAV:   1    -0.872612322071E+03   -0.58055E-05   -0.96543E-05   720   0.182E-02    0.435E-03
DAV:   2    -0.872612322301E+03   -0.22937E-06   -0.27103E-06   616   0.300E-03
  13 F= -.87261232E+03 E0= -.87261232E+03  d E =-.568357E-05
 BRION: g(F)=  0.147E-04 g(S)=  0.000E+00 retain N=  1 mean eig= 0.30
 eig:   0.298
 bond charge predicted
       N       E                     dE             d eps       ncg     rms          rms(c)
DAV:   1    -0.872612336253E+03   -0.14182E-04   -0.41757E-04   720   0.334E-02    0.669E-03
DAV:   2    -0.872612336631E+03   -0.37789E-06   -0.52744E-06   720   0.388E-03
  14 F= -.87261234E+03 E0= -.87261234E+03  d E =-.143301E-04
 BRION: g(F)=  0.145E-04 g(S)=  0.000E+00 retain N=  2 mean eig= 0.36
 eig:   0.358  0.358
 bond charge predicted
       N       E                     dE             d eps       ncg     rms          rms(c)
DAV:   1    -0.872612344149E+03   -0.78961E-05   -0.11208E-04   680   0.173E-02    0.482E-03
DAV:   2    -0.872612344256E+03   -0.10706E-06   -0.16799E-06   544   0.238E-03
  15 F= -.87261234E+03 E0= -.87261234E+03  d E =-.762528E-05
 BRION: g(F)=  0.147E-04 g(S)=  0.000E+00 retain N=  1 mean eig= 0.31
 eig:   0.306
 bond charge predicted
       N       E                     dE             d eps       ncg     rms          rms(c)
DAV:   1    -0.872612354229E+03   -0.10080E-04   -0.19716E-04   712   0.220E-02    0.497E-03
DAV:   2    -0.872612354388E+03   -0.15965E-06   -0.22333E-06   560   0.253E-03
  16 F= -.87261235E+03 E0= -.87261235E+03  d E =-.101322E-04
 BRION: g(F)=  0.144E-04 g(S)=  0.000E+00 retain N=  2 mean eig= 0.22
 eig:   0.222  0.222
 bond charge predicted
       N       E                     dE             d eps       ncg     rms          rms(c)
DAV:   1    -0.872612359720E+03   -0.54914E-05   -0.55325E-05   672   0.125E-02    0.315E-03
DAV:   2    -0.872612359775E+03   -0.54846E-07   -0.78910E-07   408   0.165E-03
  17 F= -.87261236E+03 E0= -.87261236E+03  d E =-.538661E-05
 BRION: g(F)=  0.148E-04 g(S)=  0.000E+00 retain N=  1 mean eig= 0.27
 eig:   0.266
 bond charge predicted
       N       E                     dE             d eps       ncg     rms          rms(c)
DAV:   1    -0.872612370178E+03   -0.10458E-04   -0.24298E-04   720   0.257E-02    0.531E-03
DAV:   2    -0.872612370397E+03   -0.21872E-06   -0.31648E-06   624   0.314E-03
  18 F= -.87261237E+03 E0= -.87261237E+03  d E =-.106220E-04
 BRION: g(F)=  0.149E-04 g(S)=  0.000E+00 retain N=  2 mean eig= 0.31
 eig:   0.314  0.314
 bond charge predicted
       N       E                     dE             d eps       ncg     rms          rms(c)
DAV:   1    -0.872612375083E+03   -0.49054E-05   -0.59569E-05   672   0.138E-02    0.377E-03
DAV:   2    -0.872612375166E+03   -0.82080E-07   -0.12230E-06   400   0.211E-03
  19 F= -.87261238E+03 E0= -.87261238E+03  d E =-.476879E-05
 BRION: g(F)=  0.156E-04 g(S)=  0.000E+00 retain N=  3 mean eig= 1.01
 eig:   2.372  0.327  0.327
 bond charge predicted
       N       E                     dE             d eps       ncg     rms          rms(c)
DAV:   1    -0.872612373677E+03    0.14064E-05   -0.42667E-06   592   0.337E-03    0.593E-04
DAV:   2    -0.872612373684E+03   -0.65556E-08   -0.95370E-08   376   0.632E-04
  20 F= -.87261237E+03 E0= -.87261237E+03  d E =0.148191E-05
 BRION: g(F)=  0.157E-04 g(S)=  0.000E+00 retain N=  2 mean eig= 0.21
 eig:   0.096  0.329
 bond charge predicted
       N       E                     dE             d eps       ncg     rms          rms(c)
DAV:   1    -0.872612386094E+03   -0.12417E-04   -0.37018E-04   720   0.310E-02    0.626E-03
DAV:   2    -0.872612386483E+03   -0.38924E-06   -0.52352E-06   704   0.403E-03
  21 F= -.87261239E+03 E0= -.87261239E+03  d E =-.127996E-04
 BRION: g(F)=  0.171E-04 g(S)=  0.000E+00 retain N=  3 mean eig= 0.26
 eig:   0.332  0.053  0.388
 bond charge predicted
       N       E                     dE             d eps       ncg     rms          rms(c)
DAV:   1    -0.872612391604E+03   -0.55095E-05   -0.99073E-05   720   0.187E-02    0.509E-03
DAV:   2    -0.872612391769E+03   -0.16556E-06   -0.23676E-06   568   0.288E-03
  22 F= -.87261239E+03 E0= -.87261239E+03  d E =-.528583E-05
 BRION: g(F)=  0.169E-04 g(S)=  0.000E+00 retain N=  3 mean eig= 2.69
 eig:   7.805  0.068  0.199
 bond charge predicted
       N       E                     dE             d eps       ncg     rms          rms(c)
DAV:   1    -0.872612390734E+03    0.86984E-06   -0.93550E-05   720   0.190E-02    0.476E-03
DAV:   2    -0.872612390881E+03   -0.14696E-06   -0.27134E-06   632   0.316E-03
  23 F= -.87261239E+03 E0= -.87261239E+03  d E =0.888438E-06
 BRION: g(F)=  0.173E-04 g(S)=  0.000E+00 retain N=  2 mean eig= 0.16
 eig:   0.305  0.022
 bond charge predicted
       N       E                     dE             d eps       ncg     rms          rms(c)
DAV:   1    -0.872612404080E+03   -0.13346E-04   -0.40216E-04   720   0.335E-02    0.655E-03
DAV:   2    -0.872612404555E+03   -0.47523E-06   -0.60856E-06   744   0.426E-03
  24 F= -.87261240E+03 E0= -.87261240E+03  d E =-.136743E-04
 BRION: g(F)=  0.155E-04 g(S)=  0.000E+00 retain N=  3 mean eig= 0.23
 eig:   0.235  0.030  0.431
 bond charge predicted
       N       E                     dE             d eps       ncg     rms          rms(c)
DAV:   1    -0.872612410543E+03   -0.64634E-05   -0.96054E-05   688   0.169E-02    0.506E-03
DAV:   2    -0.872612410689E+03   -0.14623E-06   -0.20570E-06   568   0.254E-03
  25 F= -.87261241E+03 E0= -.87261241E+03  d E =-.613436E-05
 BRION: g(F)=  0.154E-04 g(S)=  0.000E+00 retain N=  2 mean eig= 1.18
 eig:   0.293  2.070
 bond charge predicted
       N       E                     dE             d eps       ncg     rms          rms(c)
DAV:   1    -0.872612428229E+03   -0.17686E-04   -0.73439E-04   704   0.428E-02    0.893E-03
DAV:   2    -0.872612428898E+03   -0.66924E-06   -0.91370E-06   808   0.500E-03
  26 F= -.87261243E+03 E0= -.87261243E+03  d E =-.182087E-04
 BRION: g(F)=  0.159E-04 g(S)=  0.000E+00 retain N=  3 mean eig= 0.99
 eig:   2.464  0.367  0.130
 bond charge predicted
       N       E                     dE             d eps       ncg     rms          rms(c)
DAV:   1    -0.872612437735E+03   -0.95062E-05   -0.16173E-04   720   0.220E-02    0.633E-03
DAV:   2    -0.872612437904E+03   -0.16913E-06   -0.27006E-06   608   0.302E-03
  27 F= -.87261244E+03 E0= -.87261244E+03  d E =-.900614E-05
 BRION: g(F)=  0.149E-04 g(S)=  0.000E+00 retain N=  1 mean eig= 0.26
 eig:   0.264
 bond charge predicted
       N       E                     dE             d eps       ncg     rms          rms(c)
DAV:   1    -0.872612448471E+03   -0.10736E-04   -0.29486E-04   704   0.294E-02    0.687E-03
DAV:   2    -0.872612448765E+03   -0.29396E-06   -0.46109E-06   688   0.388E-03
  28 F= -.87261245E+03 E0= -.87261245E+03  d E =-.108610E-04
 BRION: g(F)=  0.164E-04 g(S)=  0.000E+00 retain N=  2 mean eig= 0.29
 eig:   0.242  0.334
 bond charge predicted
       N       E                     dE             d eps       ncg     rms          rms(c)
DAV:   1    -0.872612452488E+03   -0.40173E-05   -0.64918E-05   696   0.152E-02    0.421E-03
DAV:   2    -0.872612452628E+03   -0.13917E-06   -0.17586E-06   472   0.245E-03
  29 F= -.87261245E+03 E0= -.87261245E+03  d E =-.386249E-05
 BRION: g(F)=  0.149E-04 g(S)=  0.000E+00 retain N=  1 mean eig= 0.26
 eig:   0.261
 bond charge predicted
       N       E                     dE             d eps       ncg     rms          rms(c)
DAV:   1    -0.872612465600E+03   -0.13111E-04   -0.46169E-04   704   0.353E-02    0.742E-03
DAV:   2    -0.872612466048E+03   -0.44809E-06   -0.63884E-06   736   0.439E-03
  30 F= -.87261247E+03 E0= -.87261247E+03  d E =-.134201E-04
 BRION: g(F)=  0.163E-04 g(S)=  0.000E+00 retain N=  2 mean eig= 0.24
 eig:   0.330  0.145
 bond charge predicted
       N       E                     dE             d eps       ncg     rms          rms(c)
DAV:   1    -0.872612470897E+03   -0.52975E-05   -0.83971E-05   696   0.171E-02    0.498E-03
DAV:   2    -0.872612471052E+03   -0.15501E-06   -0.21084E-06   560   0.271E-03
  31 F= -.87261247E+03 E0= -.87261247E+03  d E =-.500441E-05
 BRION: g(F)=  0.150E-04 g(S)=  0.000E+00 retain N=  1 mean eig= 0.27
 eig:   0.274
 bond charge predicted
       N       E                     dE             d eps       ncg     rms          rms(c)
DAV:   1    -0.872612483112E+03   -0.12214E-04   -0.36275E-04   704   0.317E-02    0.694E-03
DAV:   2    -0.872612483455E+03   -0.34354E-06   -0.51090E-06   696   0.396E-03
  32 F= -.87261248E+03 E0= -.87261248E+03  d E =-.124030E-04
 BRION: g(F)=  0.156E-04 g(S)=  0.000E+00 retain N=  2 mean eig= 0.32
 eig:   0.318  0.318
 bond charge predicted
       N       E                     dE             d eps       ncg     rms          rms(c)
DAV:   1    -0.872612488263E+03   -0.51519E-05   -0.87426E-05   696   0.172E-02    0.494E-03
DAV:   2    -0.872612488409E+03   -0.14587E-06   -0.20285E-06   544   0.262E-03
  33 F= -.87261249E+03 E0= -.87261249E+03  d E =-.495421E-05
 BRION: g(F)=  0.154E-04 g(S)=  0.000E+00 retain N=  3 mean eig= 2.83
 eig:   0.319  0.319  7.842
 bond charge predicted
       N       E                     dE             d eps       ncg     rms          rms(c)
DAV:   1    -0.872612488914E+03   -0.65083E-06   -0.54859E-07   368   0.140E-03    0.133E-03
DAV:   2    -0.872612488914E+03    0.15280E-09   -0.61446E-08   352   0.516E-04
  34 F= -.87261249E+03 E0= -.87261249E+03  d E =-.504806E-06
 BRION: g(F)=  0.154E-04 g(S)=  0.000E+00 retain N=  2 mean eig= 0.21
 eig:   0.223  0.192
 bond charge predicted
       N       E                     dE             d eps       ncg     rms          rms(c)
DAV:   1    -0.872612500378E+03   -0.11463E-04   -0.32974E-04   704   0.293E-02    0.594E-03
DAV:   2    -0.872612500712E+03   -0.33397E-06   -0.46058E-06   680   0.378E-03
  35 F= -.87261250E+03 E0= -.87261250E+03  d E =-.117976E-04
 BRION: g(F)=  0.165E-04 g(S)=  0.000E+00 retain N=  3 mean eig= 0.29
 eig:   0.377  0.247  0.247
 bond charge predicted
       N       E                     dE             d eps       ncg     rms          rms(c)
DAV:   1    -0.872612504742E+03   -0.43646E-05   -0.92314E-05   680   0.183E-02    0.467E-03
DAV:   2    -0.872612504925E+03   -0.18306E-06   -0.24221E-06   568   0.291E-03
  36 F= -.87261250E+03 E0= -.87261250E+03  d E =-.421372E-05
 BRION: g(F)=  0.163E-04 g(S)=  0.000E+00 retain N=  2 mean eig= 3.05
 eig:   0.228  5.866
 bond charge predicted
       N       E                     dE             d eps       ncg     rms          rms(c)
DAV:   1    -0.872612507936E+03   -0.31940E-05   -0.12736E-04   704   0.213E-02    0.595E-03
DAV:   2    -0.872612508075E+03   -0.13870E-06   -0.33203E-06   664   0.349E-03
  37 F= -.87261251E+03 E0= -.87261251E+03  d E =-.314966E-05
 BRION: g(F)=  0.182E-04 g(S)=  0.000E+00 retain N=  3 mean eig= 2.75
 eig:   7.746  0.252  0.252
 bond charge predicted
       N       E                     dE             d eps       ncg     rms          rms(c)
DAV:   1    -0.872612513892E+03   -0.59556E-05   -0.11479E-04   696   0.195E-02    0.454E-03
DAV:   2    -0.872612514119E+03   -0.22721E-06   -0.26420E-06   552   0.292E-03
  38 F= -.87261251E+03 E0= -.87261251E+03  d E =-.604407E-05
 BRION: g(F)=  0.150E-04 g(S)=  0.000E+00 retain N=  3 mean eig= 2.64
 eig:   7.384  0.273  0.273
 bond charge predicted
       N       E                     dE             d eps       ncg     rms          rms(c)
DAV:   1    -0.872612521864E+03   -0.79723E-05   -0.12201E-04   672   0.178E-02    0.395E-03
DAV:   2    -0.872612521951E+03   -0.87035E-07   -0.14065E-06   512   0.207E-03
  39 F= -.87261252E+03 E0= -.87261252E+03  d E =-.783211E-05
 BRION: g(F)=  0.150E-04 g(S)=  0.000E+00 retain N=  4 mean eig= 2.15
 eig:   7.773  0.270  0.270  0.270
 bond charge predicted
       N       E                     dE             d eps       ncg     rms          rms(c)
DAV:   1    -0.872612523878E+03   -0.20142E-05   -0.65873E-06   600   0.402E-03    0.130E-03
DAV:   2    -0.872612523884E+03   -0.51587E-08   -0.87752E-08   368   0.567E-04
  40 F= -.87261252E+03 E0= -.87261252E+03  d E =-.193228E-05
 BRION: g(F)=  0.154E-04 g(S)=  0.000E+00 retain N=  4 mean eig= 2.53
 eig:   7.659  1.833  0.262  0.375
 bond charge predicted
       N       E                     dE             d eps       ncg     rms          rms(c)
DAV:   1    -0.872612515315E+03    0.85638E-05   -0.14640E-04   696   0.215E-02    0.481E-03
DAV:   2    -0.872612515506E+03   -0.19143E-06   -0.30754E-06   672   0.330E-03
  41 F= -.87261252E+03 E0= -.87261252E+03  d E =0.837752E-05
 BRION: g(F)=  0.205E-04 g(S)=  0.000E+00 retain N=  4 mean eig= 0.68
 eig:   1.993  0.201  0.201  0.334
 bond charge predicted
       N       E                     dE             d eps       ncg     rms          rms(c)
DAV:   1    -0.872612517094E+03   -0.17794E-05   -0.87283E-05   688   0.180E-02    0.438E-03
DAV:   2    -0.872612517294E+03   -0.19989E-06   -0.25630E-06   608   0.292E-03
  42 F= -.87261252E+03 E0= -.87261252E+03  d E =-.178786E-05
 BRION: g(F)=  0.185E-04 g(S)=  0.000E+00 retain N=  5 mean eig= 1.35
 eig:   5.031  0.955  0.454  0.279  0.054
 bond charge predicted
       N       E                     dE             d eps       ncg     rms          rms(c)
DAV:   1    -0.872612505688E+03    0.11406E-04   -0.29973E-04   704   0.290E-02    0.575E-03
DAV:   2    -0.872612506044E+03   -0.35659E-06   -0.46084E-06   712   0.379E-03
  43 F= -.87261251E+03 E0= -.87261251E+03  d E =0.112497E-04
 BRION: g(F)=  0.185E-04 g(S)=  0.000E+00 retain N=  3 mean eig= 2.29
 eig:   6.455  0.379  0.036
 bond charge predicted
       N       E                     dE             d eps       ncg     rms          rms(c)
DAV:   1    -0.872612540912E+03   -0.35224E-04   -0.28442E-03   704   0.850E-02    0.135E-02
DAV:   2    -0.872612543929E+03   -0.30169E-05   -0.36169E-05   800   0.993E-03    0.822E-03
DAV:   3    -0.872612543628E+03    0.30040E-06   -0.86478E-07   536   0.212E-03
  44 F= -.87261254E+03 E0= -.87261254E+03  d E =-.375840E-04
 BRION: g(F)=  0.156E-04 g(S)=  0.000E+00 retain N=  3 mean eig= 0.69
 eig:   1.268  0.246  0.549
 bond charge predicted
       N       E                     dE             d eps       ncg     rms          rms(c)
DAV:   1    -0.872612555140E+03   -0.11212E-04   -0.34733E-04   704   0.330E-02    0.721E-03
DAV:   2    -0.872612555498E+03   -0.35777E-06   -0.57436E-06   752   0.442E-03
  45 F= -.87261256E+03 E0= -.87261256E+03  d E =-.118701E-04
 BRION: g(F)=  0.173E-04 g(S)=  0.000E+00 retain N=  4 mean eig= 0.70
 eig:   1.226  0.235  0.671  0.671
 bond charge predicted
       N       E                     dE             d eps       ncg     rms          rms(c)
DAV:   1    -0.872612565652E+03   -0.10512E-04   -0.28996E-04   704   0.287E-02    0.688E-03
DAV:   2    -0.872612565994E+03   -0.34140E-06   -0.46766E-06   680   0.387E-03
  46 F= -.87261257E+03 E0= -.87261257E+03  d E =-.104956E-04
 BRION: g(F)=  0.147E-04 g(S)=  0.000E+00 retain N=  1 mean eig= 0.22
 eig:   0.224
 bond charge predicted
       N       E                     dE             d eps       ncg     rms          rms(c)
DAV:   1    -0.872612577825E+03   -0.12173E-04   -0.32648E-04   704   0.307E-02    0.744E-03
DAV:   2    -0.872612578135E+03   -0.31045E-06   -0.48590E-06   720   0.393E-03
  47 F= -.87261258E+03 E0= -.87261258E+03  d E =-.121417E-04
 BRION: g(F)=  0.162E-04 g(S)=  0.000E+00 retain N=  2 mean eig= 0.31
 eig:   0.307  0.307
 bond charge predicted
       N       E                     dE             d eps       ncg     rms          rms(c)
DAV:   1    -0.872612582560E+03   -0.47347E-05   -0.86422E-05   688   0.169E-02    0.483E-03
DAV:   2    -0.872612582686E+03   -0.12612E-06   -0.19019E-06   560   0.252E-03
  48 F= -.87261258E+03 E0= -.87261258E+03  d E =-.455034E-05
 BRION: g(F)=  0.146E-04 g(S)=  0.000E+00 retain N=  1 mean eig= 0.22
 eig:   0.216
 bond charge predicted
       N       E                     dE             d eps       ncg     rms          rms(c)
DAV:   1    -0.872612596078E+03   -0.13518E-04   -0.38982E-04   704   0.321E-02    0.671E-03
DAV:   2    -0.872612596391E+03   -0.31319E-06   -0.46973E-06   680   0.372E-03
  49 F= -.87261260E+03 E0= -.87261260E+03  d E =-.137055E-04
 BRION: g(F)=  0.144E-04 g(S)=  0.000E+00 retain N=  2 mean eig= 0.45
 eig:   0.221  0.685
 bond charge predicted
       N       E                     dE             d eps       ncg     rms          rms(c)
DAV:   1    -0.872612607621E+03   -0.11543E-04   -0.33355E-04   704   0.309E-02    0.785E-03
DAV:   2    -0.872612607935E+03   -0.31356E-06   -0.49187E-06   712   0.399E-03
  50 F= -.87261261E+03 E0= -.87261261E+03  d E =-.115432E-04
 BRION: g(F)=  0.161E-04 g(S)=  0.000E+00 retain N=  2 mean eig= 1.20
 eig:   0.478  1.920
 bond charge predicted
       N       E                     dE             d eps       ncg     rms          rms(c)
DAV:   1    -0.872612617509E+03   -0.98883E-05   -0.27649E-04   704   0.295E-02    0.752E-03
DAV:   2    -0.872612617883E+03   -0.37406E-06   -0.54120E-06   712   0.416E-03
  51 F= -.87261262E+03 E0= -.87261262E+03  d E =-.994882E-05
 BRION: g(F)=  0.184E-04 g(S)=  0.000E+00 retain N=  2 mean eig= 0.11
 eig:   0.108  0.108
 bond charge predicted
       N       E                     dE             d eps       ncg     rms          rms(c)
DAV:   1    -0.872612617512E+03   -0.24884E-08   -0.51660E-05   680   0.139E-02    0.386E-03
DAV:   2    -0.872612617643E+03   -0.13113E-06   -0.16987E-06   544   0.233E-03
  52 F= -.87261262E+03 E0= -.87261262E+03  d E =0.240441E-06
 BRION: g(F)=  0.150E-04 g(S)=  0.000E+00 retain N=  1 mean eig= 0.28
 eig:   0.281
 bond charge predicted
       N       E                     dE             d eps       ncg     rms          rms(c)
DAV:   1    -0.872612631950E+03   -0.14438E-04   -0.46544E-04   704   0.347E-02    0.676E-03
DAV:   2    -0.872612632336E+03   -0.38617E-06   -0.55477E-06   696   0.403E-03
  53 F= -.87261263E+03 E0= -.87261263E+03  d E =-.146930E-04
 BRION: g(F)=  0.153E-04 g(S)=  0.000E+00 retain N=  2 mean eig= 0.86
 eig:   0.298  1.427
 bond charge predicted
       N       E                     dE             d eps       ncg     rms          rms(c)
DAV:   1    -0.872612641785E+03   -0.98349E-05   -0.21304E-04   704   0.236E-02    0.598E-03
DAV:   2    -0.872612641958E+03   -0.17356E-06   -0.28542E-06   616   0.300E-03
  54 F= -.87261264E+03 E0= -.87261264E+03  d E =-.962232E-05
 BRION: g(F)=  0.160E-04 g(S)=  0.000E+00 retain N=  2 mean eig= 0.50
 eig:   0.348  0.660
 bond charge predicted
       N       E                     dE             d eps       ncg     rms          rms(c)
DAV:   1    -0.872612640512E+03    0.12726E-05   -0.27771E-05   672   0.966E-03    0.211E-03
DAV:   2    -0.872612640576E+03   -0.63410E-07   -0.75354E-07   376   0.158E-03
  55 F= -.87261264E+03 E0= -.87261264E+03  d E =0.138272E-05
 BRION: g(F)=  0.156E-04 g(S)=  0.000E+00 retain N=  2 mean eig= 0.78
 eig:   0.344  1.220
 bond charge predicted
       N       E                     dE             d eps       ncg     rms          rms(c)
DAV:   1    -0.872612651085E+03   -0.10573E-04   -0.23077E-04   704   0.245E-02    0.497E-03
DAV:   2    -0.872612651280E+03   -0.19556E-06   -0.28103E-06   584   0.294E-03
  56 F= -.87261265E+03 E0= -.87261265E+03  d E =-.107048E-04
 BRION: g(F)=  0.163E-04 g(S)=  0.000E+00 retain N=  2 mean eig= 0.39
 eig:   0.393  0.393
 bond charge predicted
       N       E                     dE             d eps       ncg     rms          rms(c)
DAV:   1    -0.872612662689E+03   -0.11605E-04   -0.39903E-04   704   0.352E-02    0.837E-03
DAV:   2    -0.872612663121E+03   -0.43185E-06   -0.69252E-06   760   0.482E-03
  57 F= -.87261266E+03 E0= -.87261266E+03  d E =-.118409E-04
 BRION: g(F)=  0.182E-04 g(S)=  0.000E+00 retain N=  3 mean eig= 2.16
 eig:   5.933  0.268  0.268
 bond charge predicted
       N       E                     dE             d eps       ncg     rms          rms(c)
DAV:   1    -0.872612716918E+03   -0.54229E-04   -0.66038E-03   704   0.126E-01    0.250E-02
DAV:   2    -0.872612722571E+03   -0.56529E-05   -0.76114E-05   792   0.143E-02    0.150E-02
DAV:   3    -0.872612721635E+03    0.93567E-06   -0.26649E-06   616   0.352E-03
  58 F= -.87261272E+03 E0= -.87261272E+03  d E =-.585139E-04
 BRION: g(F)=  0.246E-04 g(S)=  0.000E+00 retain N=  3 mean eig= 1.29
 eig:   3.407  0.234  0.234
 bond charge predicted
       N       E                     dE             d eps       ncg     rms          rms(c)
DAV:   1    -0.872612672408E+03    0.50163E-04   -0.40899E-03   704   0.102E-01    0.189E-02
DAV:   2    -0.872612676361E+03   -0.39533E-05   -0.52323E-05   776   0.122E-02    0.111E-02
DAV:   3    -0.872612675638E+03    0.72260E-06   -0.15753E-06   576   0.292E-03
  59 F= -.87261268E+03 E0= -.87261268E+03  d E =0.459968E-04
 BRION: g(F)=  0.212E-04 g(S)=  0.000E+00 retain N=  3 mean eig= 1.25
 eig:   2.878  0.433  0.433
 bond charge predicted
       N       E                     dE             d eps       ncg     rms          rms(c)
DAV:   1    -0.872612677573E+03   -0.12119E-05   -0.44964E-05   696   0.129E-02    0.311E-03
DAV:   2    -0.872612677647E+03   -0.74477E-07   -0.14112E-06   440   0.228E-03
  60 F= -.87261268E+03 E0= -.87261268E+03  d E =-.200896E-05
 BRION: g(F)=  0.155E-04 g(S)=  0.000E+00 retain N=  2 mean eig= 0.88
 eig:   0.462  1.295
 bond charge predicted
       N       E                     dE             d eps       ncg     rms          rms(c)
DAV:   1    -0.872612694319E+03   -0.16746E-04   -0.62154E-04   704   0.399E-02    0.691E-03
DAV:   2    -0.872612694873E+03   -0.55439E-06   -0.74298E-06   744   0.453E-03
  61 F= -.87261269E+03 E0= -.87261269E+03  d E =-.172257E-04
 BRION: g(F)=  0.145E-04 g(S)=  0.000E+00 retain N=  3 mean eig= 0.88
 eig:   0.672  0.672  1.284
 bond charge predicted
       N       E                     dE             d eps       ncg     rms          rms(c)
DAV:   1    -0.872612708672E+03   -0.14354E-04   -0.35921E-04   704   0.301E-02    0.748E-03
DAV:   2    -0.872612708980E+03   -0.30756E-06   -0.46706E-06   672   0.366E-03
  62 F= -.87261271E+03 E0= -.87261271E+03  d E =-.141069E-04
 BRION: g(F)=  0.168E-04 g(S)=  0.000E+00 retain N=  4 mean eig= 2.02
 eig:   3.577  3.577  0.407  0.520
 bond charge predicted
       N       E                     dE             d eps       ncg     rms          rms(c)
DAV:   1    -0.872612823080E+03   -0.11441E-03   -0.35623E-02   704   0.286E-01    0.544E-02
DAV:   2    -0.872612852906E+03   -0.29826E-04   -0.38718E-04   792   0.311E-02    0.335E-02
DAV:   3    -0.872612848615E+03    0.42914E-05   -0.13516E-05   752   0.709E-03    0.102E-02
DAV:   4    -0.872612848911E+03   -0.29651E-06   -0.34690E-06   616   0.318E-03
  63 F= -.87261285E+03 E0= -.87261285E+03  d E =-.139931E-03
 BRION: g(F)=  0.204E-04 g(S)=  0.000E+00 retain N=  3 mean eig= 2.24
 eig:   4.833  0.938  0.938
 bond charge predicted
       N       E                     dE             d eps       ncg     rms          rms(c)
DAV:   1    -0.872612817225E+03    0.31390E-04   -0.16523E-03   704   0.640E-02    0.121E-02
DAV:   2    -0.872612818667E+03   -0.14414E-05   -0.19853E-05   792   0.741E-03    0.722E-03
DAV:   3    -0.872612818347E+03    0.31950E-06   -0.63192E-07   544   0.182E-03
  64 F= -.87261282E+03 E0= -.87261282E+03  d E =0.305641E-04
 BRION: g(F)=  0.239E-04 g(S)=  0.000E+00 retain N=  3 mean eig= 1.80
 eig:   4.146  0.503  0.742
 bond charge predicted
       N       E                     dE             d eps       ncg     rms          rms(c)
DAV:   1    -0.872612694420E+03    0.12425E-03   -0.21413E-02   704   0.221E-01    0.413E-02
DAV:   2    -0.872612712686E+03   -0.18266E-04   -0.23225E-04   792   0.241E-02    0.253E-02
DAV:   3    -0.872612710178E+03    0.25077E-05   -0.76897E-06   712   0.533E-03    0.813E-03
DAV:   4    -0.872612710312E+03   -0.13425E-06   -0.20915E-06   552   0.256E-03
  65 F= -.87261271E+03 E0= -.87261271E+03  d E =0.108035E-03
 BRION: g(F)=  0.168E-04 g(S)=  0.000E+00 retain N=  2 mean eig= 0.78
 eig:   0.379  1.184
 bond charge predicted
       N       E                     dE             d eps       ncg     rms          rms(c)
DAV:   1    -0.872612746992E+03   -0.36814E-04   -0.30868E-03   704   0.891E-02    0.154E-02
DAV:   2    -0.872612749800E+03   -0.28085E-05   -0.36954E-05   792   0.101E-02    0.933E-03
DAV:   3    -0.872612749279E+03    0.52192E-06   -0.10734E-06   560   0.230E-03
  66 F= -.87261275E+03 E0= -.87261275E+03  d E =-.389663E-04
 BRION: g(F)=  0.182E-04 g(S)=  0.000E+00 retain N=  3 mean eig= 0.66
 eig:   1.135  0.415  0.415
 bond charge predicted
       N       E                     dE             d eps       ncg     rms          rms(c)
DAV:   1    -0.872612764560E+03   -0.14760E-04   -0.41014E-04   704   0.309E-02    0.653E-03
DAV:   2    -0.872612764913E+03   -0.35327E-06   -0.48841E-06   696   0.377E-03
  67 F= -.87261276E+03 E0= -.87261276E+03  d E =-.156347E-04
 BRION: g(F)=  0.151E-04 g(S)=  0.000E+00 retain N=  4 mean eig= 1.45
 eig:   3.627  0.459  0.861  0.861
 bond charge predicted
       N       E                     dE             d eps       ncg     rms          rms(c)
DAV:   1    -0.872612812910E+03   -0.48350E-04   -0.46013E-03   704   0.103E-01    0.208E-02
DAV:   2    -0.872612816710E+03   -0.38001E-05   -0.50887E-05   800   0.114E-02    0.127E-02
DAV:   3    -0.872612816129E+03    0.58128E-06   -0.17317E-06   568   0.267E-03
  68 F= -.87261282E+03 E0= -.87261282E+03  d E =-.512156E-04
 BRION: g(F)=  0.178E-04 g(S)=  0.000E+00 retain N=  5 mean eig= 1.74
 eig:   6.547  1.196  0.463  0.422  0.072
 bond charge predicted
       N       E                     dE             d eps       ncg     rms          rms(c)
DAV:   1    -0.872612848131E+03   -0.31421E-04   -0.20245E-03   704   0.680E-02    0.129E-02
DAV:   2    -0.872612849888E+03   -0.17566E-05   -0.21777E-05   808   0.735E-03    0.774E-03
DAV:   3    -0.872612849718E+03    0.17004E-06   -0.66169E-07   544   0.161E-03
  69 F= -.87261285E+03 E0= -.87261285E+03  d E =-.335889E-04
 BRION: g(F)=  0.163E-04 g(S)=  0.000E+00 retain N=  3 mean eig= 1.08
 eig:   2.323  0.459  0.459
 bond charge predicted
       N       E                     dE             d eps       ncg     rms          rms(c)
DAV:   1    -0.872612785850E+03    0.64038E-04   -0.62934E-03   704   0.118E-01    0.226E-02
DAV:   2    -0.872612790974E+03   -0.51240E-05   -0.67716E-05   792   0.129E-02    0.139E-02
DAV:   3    -0.872612790089E+03    0.88484E-06   -0.23386E-06   608   0.306E-03
  70 F= -.87261279E+03 E0= -.87261279E+03  d E =0.596285E-04
 BRION: g(F)=  0.177E-04 g(S)=  0.000E+00 retain N=  4 mean eig= 1.87
 eig:   5.879  0.537  0.537  0.513
 bond charge predicted
       N       E                     dE             d eps       ncg     rms          rms(c)
DAV:   1    -0.872612794334E+03   -0.33602E-05   -0.42939E-05   664   0.108E-02    0.205E-03
DAV:   2    -0.872612794360E+03   -0.25480E-07   -0.68804E-07   384   0.158E-03
  71 F= -.87261279E+03 E0= -.87261279E+03  d E =-.427047E-05
 BRION: g(F)=  0.167E-04 g(S)=  0.000E+00 retain N=  5 mean eig= 2.20
 eig:   7.671  1.752  0.451  0.451  0.681
 bond charge predicted
       N       E                     dE             d eps       ncg     rms          rms(c)
DAV:   1    -0.872612800532E+03   -0.61979E-05   -0.64775E-05   656   0.122E-02    0.282E-03
DAV:   2    -0.872612800569E+03   -0.37013E-07   -0.71871E-07   432   0.151E-03
  72 F= -.87261280E+03 E0= -.87261280E+03  d E =-.620942E-05
 BRION: g(F)=  0.161E-04 g(S)=  0.000E+00 retain N=  3 mean eig= 1.83
 eig:   4.238  0.622  0.622
 bond charge predicted
       N       E                     dE             d eps       ncg     rms          rms(c)
DAV:   1    -0.872612834416E+03   -0.33884E-04   -0.24939E-03   704   0.761E-02    0.145E-02
DAV:   2    -0.872612836557E+03   -0.21407E-05   -0.28128E-05   800   0.851E-03    0.878E-03
DAV:   3    -0.872612836206E+03    0.35077E-06   -0.91675E-07   560   0.205E-03
  73 F= -.87261284E+03 E0= -.87261284E+03  d E =-.356369E-04
 BRION: g(F)=  0.182E-04 g(S)=  0.000E+00 retain N=  3 mean eig= 0.23
 eig:   0.377  0.062  0.254
 bond charge predicted
       N       E                     dE             d eps       ncg     rms          rms(c)
DAV:   1    -0.872612840522E+03   -0.39657E-05   -0.88722E-05   704   0.174E-02    0.360E-03
DAV:   2    -0.872612840631E+03   -0.10859E-06   -0.18991E-06   584   0.256E-03
  74 F= -.87261284E+03 E0= -.87261284E+03  d E =-.442503E-05
 BRION: g(F)=  0.158E-04 g(S)=  0.000E+00 retain N=  4 mean eig= 1.22
 eig:   4.216  0.207  0.225  0.225
 bond charge predicted
       N       E                     dE             d eps       ncg     rms          rms(c)
DAV:   1    -0.872612855201E+03   -0.14678E-04   -0.37928E-04   704   0.302E-02    0.629E-03
DAV:   2    -0.872612855539E+03   -0.33886E-06   -0.44943E-06   632   0.350E-03
  75 F= -.87261286E+03 E0= -.87261286E+03  d E =-.149083E-04
 BRION: g(F)=  0.153E-04 g(S)=  0.000E+00 retain N=  2 mean eig= 0.52
 eig:   0.525  0.525
 bond charge predicted
       N       E                     dE             d eps       ncg     rms          rms(c)
DAV:   1    -0.872612865873E+03   -0.10673E-04   -0.41246E-04   704   0.355E-02    0.780E-03
DAV:   2    -0.872612866395E+03   -0.52163E-06   -0.73296E-06   792   0.481E-03
  76 F= -.87261287E+03 E0= -.87261287E+03  d E =-.108553E-04
 BRION: g(F)=  0.191E-04 g(S)=  0.000E+00 retain N=  3 mean eig= 0.32
 eig:   0.436  0.436  0.081
 bond charge predicted
       N       E                     dE             d eps       ncg     rms          rms(c)
DAV:   1    -0.872612877206E+03   -0.11333E-04   -0.30329E-04   704   0.294E-02    0.734E-03
DAV:   2    -0.872612877555E+03   -0.34938E-06   -0.52309E-06   720   0.404E-03
  77 F= -.87261288E+03 E0= -.87261288E+03  d E =-.111604E-04
 BRION: g(F)=  0.159E-04 g(S)=  0.000E+00 retain N=  2 mean eig= 1.75
 eig:   0.284  3.216
 bond charge predicted
       N       E                     dE             d eps       ncg     rms          rms(c)
DAV:   1    -0.872612875872E+03    0.13338E-05   -0.20264E-05   664   0.763E-03    0.178E-03
DAV:   2    -0.872612875917E+03   -0.45286E-07   -0.49599E-07   376   0.126E-03
  78 F= -.87261288E+03 E0= -.87261288E+03  d E =0.163792E-05
 BRION: g(F)=  0.157E-04 g(S)=  0.000E+00 retain N=  2 mean eig= 0.33
 eig:   0.336  0.328
 bond charge predicted
       N       E                     dE             d eps       ncg     rms          rms(c)
DAV:   1    -0.872612888810E+03   -0.12938E-04   -0.36733E-04   704   0.316E-02    0.628E-03
DAV:   2    -0.872612889221E+03   -0.41133E-06   -0.54024E-06   664   0.406E-03
  79 F= -.87261289E+03 E0= -.87261289E+03  d E =-.133037E-04
 BRION: g(F)=  0.174E-04 g(S)=  0.000E+00 retain N=  3 mean eig= 0.85
 eig:   1.527  0.504  0.504
 bond charge predicted
       N       E                     dE             d eps       ncg     rms          rms(c)
DAV:   1    -0.872612896531E+03   -0.77216E-05   -0.24386E-04   704   0.280E-02    0.680E-03
DAV:   2    -0.872612896888E+03   -0.35651E-06   -0.53516E-06   712   0.419E-03
  80 F= -.87261290E+03 E0= -.87261290E+03  d E =-.766681E-05
 BRION: g(F)=  0.194E-04 g(S)=  0.000E+00 retain N=  2 mean eig= 1.51
 eig:   0.371  2.651
 bond charge predicted
       N       E                     dE             d eps       ncg     rms          rms(c)
DAV:   1    -0.872612894241E+03    0.22898E-05   -0.92878E-05   704   0.180E-02    0.402E-03
DAV:   2    -0.872612894441E+03   -0.19919E-06   -0.25689E-06   608   0.295E-03
  81 F= -.87261289E+03 E0= -.87261289E+03  d E =0.244715E-05
 BRION: g(F)=  0.172E-04 g(S)=  0.000E+00 retain N=  2 mean eig= 0.28
 eig:   0.343  0.208
 bond charge predicted
       N       E                     dE             d eps       ncg     rms          rms(c)
DAV:   1    -0.872612907616E+03   -0.13374E-04   -0.34444E-04   704   0.299E-02    0.551E-03
DAV:   2    -0.872612907962E+03   -0.34607E-06   -0.43913E-06   640   0.359E-03
  82 F= -.87261291E+03 E0= -.87261291E+03  d E =-.135211E-04
 BRION: g(F)=  0.147E-04 g(S)=  0.000E+00 retain N=  3 mean eig= 0.63
 eig:   1.035  0.148  0.720
 bond charge predicted
       N       E                     dE             d eps       ncg     rms          rms(c)
DAV:   1    -0.872612920286E+03   -0.12671E-04   -0.31699E-04   704   0.291E-02    0.682E-03
DAV:   2    -0.872612920587E+03   -0.30088E-06   -0.45555E-06   680   0.375E-03
  83 F= -.87261292E+03 E0= -.87261292E+03  d E =-.126256E-04
 BRION: g(F)=  0.165E-04 g(S)=  0.000E+00 retain N=  3 mean eig= 1.24
 eig:   3.032  0.263  0.435
 bond charge predicted
       N       E                     dE             d eps       ncg     rms          rms(c)
DAV:   1    -0.872612956558E+03   -0.36272E-04   -0.29296E-03   704   0.842E-02    0.164E-02
DAV:   2    -0.872612959072E+03   -0.25135E-05   -0.33831E-05   808   0.943E-03    0.997E-03
DAV:   3    -0.872612958647E+03    0.42493E-06   -0.11542E-06   560   0.222E-03
  84 F= -.87261296E+03 E0= -.87261296E+03  d E =-.380597E-04
 BRION: g(F)=  0.183E-04 g(S)=  0.000E+00 retain N=  3 mean eig= 2.24
 eig:   0.781  0.781  5.144
 bond charge predicted
       N       E                     dE             d eps       ncg     rms          rms(c)
DAV:   1    -0.872612940478E+03    0.18594E-04   -0.64327E-04   704   0.400E-02    0.714E-03
DAV:   2    -0.872612941075E+03   -0.59731E-06   -0.81229E-06   760   0.476E-03
  85 F= -.87261294E+03 E0= -.87261294E+03  d E =0.175716E-04
 BRION: g(F)=  0.185E-04 g(S)=  0.000E+00 retain N=  3 mean eig= 2.79
 eig:   7.044  0.419  0.893
 bond charge predicted
       N       E                     dE             d eps       ncg     rms          rms(c)
DAV:   1    -0.872612903967E+03    0.36511E-04   -0.25010E-03   704   0.808E-02    0.153E-02
DAV:   2    -0.872612906218E+03   -0.22505E-05   -0.30691E-05   808   0.922E-03    0.922E-03
DAV:   3    -0.872612905795E+03    0.42243E-06   -0.10359E-06   560   0.220E-03
  86 F= -.87261291E+03 E0= -.87261291E+03  d E =0.352799E-04
 BRION: g(F)=  0.211E-04 g(S)=  0.000E+00 retain N=  4 mean eig= 2.04
 eig:   7.011  0.103  0.313  0.733
 bond charge predicted
       N       E                     dE             d eps       ncg     rms          rms(c)
DAV:   1    -0.872612883875E+03    0.22343E-04   -0.97187E-04   704   0.524E-02    0.933E-03
DAV:   2    -0.872612885020E+03   -0.11451E-05   -0.14322E-05   800   0.649E-03    0.524E-03
DAV:   3    -0.872612884875E+03    0.14449E-06   -0.35617E-07   480   0.144E-03
  87 F= -.87261288E+03 E0= -.87261288E+03  d E =0.209201E-04
 BRION: g(F)=  0.230E-04 g(S)=  0.000E+00 retain N=  2 mean eig= 1.99
 eig:   0.185  3.797
 bond charge predicted
       N       E                     dE             d eps       ncg     rms          rms(c)
DAV:   1    -0.872612948412E+03   -0.63393E-04   -0.11468E-02   704   0.177E-01    0.292E-02
DAV:   2    -0.872612960791E+03   -0.12378E-04   -0.15281E-04   768   0.208E-02    0.177E-02
DAV:   3    -0.872612959232E+03    0.15590E-05   -0.40394E-06   672   0.434E-03    0.741E-03
DAV:   4    -0.872612959157E+03    0.74841E-07   -0.19043E-06   568   0.285E-03
  88 F= -.87261296E+03 E0= -.87261296E+03  d E =-.742815E-04
 BRION: g(F)=  0.276E-04 g(S)=  0.000E+00 retain N=  2 mean eig= 0.31
 eig:   0.065  0.562
 bond charge predicted
       N       E                     dE             d eps       ncg     rms          rms(c)
DAV:   1    -0.872612933794E+03    0.25437E-04   -0.14263E-03   704   0.661E-02    0.114E-02
DAV:   2    -0.872612935454E+03   -0.16600E-05   -0.22031E-05   784   0.838E-03    0.626E-03
DAV:   3    -0.872612935130E+03    0.32470E-06   -0.58983E-07   528   0.198E-03
  89 F= -.87261294E+03 E0= -.87261294E+03  d E =0.240271E-04
 BRION: g(F)=  0.196E-04 g(S)=  0.000E+00 retain N=  3 mean eig= 1.16
 eig:   2.759  0.080  0.652
 bond charge predicted
       N       E                     dE             d eps       ncg     rms          rms(c)
DAV:   1    -0.872612939566E+03   -0.41118E-05   -0.73609E-05   696   0.159E-02    0.336E-03
DAV:   2    -0.872612939678E+03   -0.11175E-06   -0.18569E-06   504   0.265E-03
  90 F= -.87261294E+03 E0= -.87261294E+03  d E =-.454825E-05
 BRION: g(F)=  0.156E-04 g(S)=  0.000E+00 retain N=  2 mean eig= 0.25
 eig:   0.365  0.129
 bond charge predicted
       N       E                     dE             d eps       ncg     rms          rms(c)
DAV:   1    -0.872612957424E+03   -0.17858E-04   -0.73626E-04   704   0.438E-02    0.786E-03
DAV:   2    -0.872612958068E+03   -0.64423E-06   -0.90368E-06   784   0.508E-03
  91 F= -.87261296E+03 E0= -.87261296E+03  d E =-.183901E-04
 BRION: g(F)=  0.152E-04 g(S)=  0.000E+00 retain N=  3 mean eig= 0.32
 eig:   0.449  0.335  0.172
 bond charge predicted
       N       E                     dE             d eps       ncg     rms          rms(c)
DAV:   1    -0.872612966188E+03   -0.87639E-05   -0.14622E-04   704   0.207E-02    0.582E-03
DAV:   2    -0.872612966307E+03   -0.11931E-06   -0.22835E-06   544   0.277E-03
  92 F= -.87261297E+03 E0= -.87261297E+03  d E =-.823896E-05
 BRION: g(F)=  0.156E-04 g(S)=  0.000E+00 retain N=  2 mean eig= 3.08
 eig:   0.297  5.867
 bond charge predicted
       N       E                     dE             d eps       ncg     rms          rms(c)
DAV:   1    -0.872612991794E+03   -0.25606E-04   -0.13980E-03   704   0.574E-02    0.114E-02
DAV:   2    -0.872612992914E+03   -0.11204E-05   -0.15463E-05   800   0.628E-03    0.706E-03
DAV:   3    -0.872612992714E+03    0.19981E-06   -0.59864E-07   544   0.157E-03
  93 F= -.87261299E+03 E0= -.87261299E+03  d E =-.264076E-04
 BRION: g(F)=  0.166E-04 g(S)=  0.000E+00 retain N=  2 mean eig= 0.39
 eig:   0.287  0.498
 bond charge predicted
       N       E                     dE             d eps       ncg     rms          rms(c)
DAV:   1    -0.872612970072E+03    0.22843E-04   -0.95702E-04   704   0.476E-02    0.846E-03
DAV:   2    -0.872612970891E+03   -0.81969E-06   -0.11036E-05   768   0.537E-03    0.529E-03
DAV:   3    -0.872612970728E+03    0.16275E-06   -0.35965E-07   424   0.130E-03
  94 F= -.87261297E+03 E0= -.87261297E+03  d E =0.219860E-04
 BRION: g(F)=  0.166E-04 g(S)=  0.000E+00 retain N=  3 mean eig= 0.88
 eig:   1.636  0.298  0.703
 bond charge predicted
       N       E                     dE             d eps       ncg     rms          rms(c)
DAV:   1    -0.872612977083E+03   -0.61917E-05   -0.90020E-05   648   0.145E-02    0.279E-03
DAV:   2    -0.872612977158E+03   -0.75335E-07   -0.11366E-06   448   0.186E-03
  95 F= -.87261298E+03 E0= -.87261298E+03  d E =-.642979E-05
 BRION: g(F)=  0.172E-04 g(S)=  0.000E+00 retain N=  2 mean eig= 1.94
 eig:   1.937  1.937
 bond charge predicted
       N       E                     dE             d eps       ncg     rms          rms(c)
DAV:   1    -0.872613017116E+03   -0.40033E-04   -0.38290E-03   704   0.990E-02    0.198E-02
DAV:   2    -0.872613020648E+03   -0.35319E-05   -0.49287E-05   792   0.120E-02    0.109E-02
DAV:   3    -0.872613019915E+03    0.73284E-06   -0.15380E-06   576   0.301E-03
  96 F= -.87261302E+03 E0= -.87261302E+03  d E =-.427567E-04
 BRION: g(F)=  0.282E-04 g(S)=  0.000E+00 retain N=  3 mean eig= 1.87
 eig:   2.628  2.628  0.347
 bond charge predicted
       N       E                     dE             d eps       ncg     rms          rms(c)
DAV:   1    -0.872613114894E+03   -0.94246E-04   -0.22116E-02   704   0.222E-01    0.427E-02
DAV:   2    -0.872613133055E+03   -0.18161E-04   -0.23934E-04   792   0.244E-02    0.259E-02
DAV:   3    -0.872613130220E+03    0.28343E-05   -0.83192E-06   720   0.595E-03    0.924E-03
DAV:   4    -0.872613130343E+03   -0.12264E-06   -0.28259E-06   600   0.317E-03
  97 F= -.87261313E+03 E0= -.87261313E+03  d E =-.110428E-03
 BRION: g(F)=  0.182E-04 g(S)=  0.000E+00 retain N=  2 mean eig= 1.91
 eig:   0.131  3.686
 bond charge predicted
       N       E                     dE             d eps       ncg     rms          rms(c)
DAV:   1    -0.872613042596E+03    0.87625E-04   -0.11911E-02   704   0.165E-01    0.308E-02
DAV:   2    -0.872613052209E+03   -0.96137E-05   -0.12980E-04   792   0.181E-02    0.190E-02
DAV:   3    -0.872613050363E+03    0.18462E-05   -0.45833E-06   688   0.432E-03    0.636E-03
DAV:   4    -0.872613050392E+03   -0.28835E-07   -0.14639E-06   560   0.218E-03
  98 F= -.87261305E+03 E0= -.87261305E+03  d E =0.799508E-04
 BRION: g(F)=  0.193E-04 g(S)=  0.000E+00 retain N=  2 mean eig= 0.77
 eig:   0.498  1.041
 bond charge predicted
       N       E                     dE             d eps       ncg     rms          rms(c)
DAV:   1    -0.872613100065E+03   -0.49701E-04   -0.52771E-03   704   0.110E-01    0.205E-02
DAV:   2    -0.872613104392E+03   -0.43277E-05   -0.57924E-05   792   0.121E-02    0.126E-02
DAV:   3    -0.872613103576E+03    0.81661E-06   -0.19398E-06   584   0.283E-03
  99 F= -.87261310E+03 E0= -.87261310E+03  d E =-.531836E-04
 BRION: g(F)=  0.193E-04 g(S)=  0.000E+00 retain N=  3 mean eig= 0.87
 eig:   0.509  1.043  1.043
 bond charge predicted
       N       E                     dE             d eps       ncg     rms          rms(c)
DAV:   1    -0.872613116868E+03   -0.12476E-04   -0.34716E-04   704   0.293E-02    0.628E-03
DAV:   2    -0.872613117171E+03   -0.30250E-06   -0.44922E-06   696   0.369E-03
 100 F= -.87261312E+03 E0= -.87261312E+03  d E =-.135953E-04
 BRION: g(F)=  0.156E-04 g(S)=  0.000E+00 retain N=  2 mean eig= 3.90
 eig:   0.034  7.762
 bond charge predicted
       N       E                     dE             d eps       ncg     rms          rms(c)
DAV:   1    -0.872613253403E+03   -0.13653E-03   -0.54478E-02   704   0.344E-01    0.677E-02
DAV:   2    -0.872613296662E+03   -0.43259E-04   -0.57718E-04   792   0.371E-02    0.419E-02
DAV:   3    -0.872613289678E+03    0.69840E-05   -0.21329E-05   760   0.858E-03    0.124E-02
DAV:   4    -0.872613290105E+03   -0.42675E-06   -0.51725E-06   672   0.373E-03
 101 F= -.87261329E+03 E0= -.87261329E+03  d E =-.172934E-03
 BRION: g(F)=  0.222E-04 g(S)=  0.000E+00 retain N=  2 mean eig= 0.79
 eig:   0.333  1.240
 bond charge predicted
       N       E                     dE             d eps       ncg     rms          rms(c)
DAV:   1    -0.872613117670E+03    0.17201E-03   -0.39108E-02   704   0.288E-01    0.562E-02
DAV:   2    -0.872613147539E+03   -0.29868E-04   -0.40695E-04   792   0.309E-02    0.349E-02
DAV:   3    -0.872613141835E+03    0.57035E-05   -0.15568E-05   760   0.725E-03    0.106E-02
DAV:   4    -0.872613142020E+03   -0.18447E-06   -0.38695E-06   616   0.324E-03
 102 F= -.87261314E+03 E0= -.87261314E+03  d E =0.148085E-03
 BRION: g(F)=  0.291E-04 g(S)=  0.000E+00 retain N=  3 mean eig= 0.57
 eig:   1.111  0.361  0.244
 bond charge predicted
       N       E                     dE             d eps       ncg     rms          rms(c)
DAV:   1    -0.872613155430E+03   -0.13595E-04   -0.34856E-04   704   0.297E-02    0.585E-03
DAV:   2    -0.872613155638E+03   -0.20708E-06   -0.43914E-06   688   0.374E-03
 103 F= -.87261316E+03 E0= -.87261316E+03  d E =-.136180E-04
 BRION: g(F)=  0.158E-04 g(S)=  0.000E+00 retain N=  2 mean eig= 1.56
 eig:   0.859  2.268
 bond charge predicted
       N       E                     dE             d eps       ncg     rms          rms(c)
DAV:   1    -0.872613195468E+03   -0.40038E-04   -0.29989E-03   704   0.798E-02    0.171E-02
DAV:   2    -0.872613197603E+03   -0.21350E-05   -0.31100E-05   784   0.858E-03    0.106E-02
DAV:   3    -0.872613197131E+03    0.47249E-06   -0.13337E-06   568   0.221E-03
 104 F= -.87261320E+03 E0= -.87261320E+03  d E =-.414930E-04
 BRION: g(F)=  0.189E-04 g(S)=  0.000E+00 retain N=  3 mean eig= 2.08
 eig:   0.992  0.293  4.942
 bond charge predicted
       N       E                     dE             d eps       ncg     rms          rms(c)
DAV:   1    -0.872613197883E+03   -0.28021E-06   -0.22991E-06   504   0.281E-03    0.818E-04
DAV:   2    -0.872613197883E+03    0.39290E-09   -0.93128E-08   352   0.644E-04
 105 F= -.87261320E+03 E0= -.87261320E+03  d E =-.752305E-06
 BRION: g(F)=  0.179E-04 g(S)=  0.000E+00 retain N=  3 mean eig= 1.83
 eig:   4.615  0.437  0.437
 bond charge predicted
       N       E                     dE             d eps       ncg     rms          rms(c)
DAV:   1    -0.872613188123E+03    0.97602E-05   -0.17113E-04   688   0.199E-02    0.397E-03
DAV:   2    -0.872613188253E+03   -0.12960E-06   -0.19427E-06   528   0.237E-03
 106 F= -.87261319E+03 E0= -.87261319E+03  d E =0.963022E-05
 BRION: g(F)=  0.183E-04 g(S)=  0.000E+00 retain N=  2 mean eig= 0.26
 eig:   0.198  0.326
 bond charge predicted
       N       E                     dE             d eps       ncg     rms          rms(c)
DAV:   1    -0.872613213290E+03   -0.25167E-04   -0.19933E-03   704   0.726E-02    0.133E-02
DAV:   2    -0.872613215427E+03   -0.21374E-05   -0.28438E-05   808   0.928E-03    0.685E-03
DAV:   3    -0.872613214996E+03    0.43149E-06   -0.79476E-07   536   0.234E-03
 107 F= -.87261321E+03 E0= -.87261321E+03  d E =-.267430E-04
 BRION: g(F)=  0.294E-04 g(S)=  0.000E+00 retain N=  3 mean eig= 0.29
 eig:   0.145  0.271  0.464
 bond charge predicted
       N       E                     dE             d eps       ncg     rms          rms(c)
DAV:   1    -0.872613221188E+03   -0.57612E-05   -0.18584E-04   704   0.260E-02    0.656E-03
DAV:   2    -0.872613221413E+03   -0.22498E-06   -0.51912E-06   680   0.438E-03
 108 F= -.87261322E+03 E0= -.87261322E+03  d E =-.641766E-05
 BRION: g(F)=  0.157E-04 g(S)=  0.000E+00 retain N=  1 mean eig= 0.30
 eig:   0.297
 bond charge predicted
       N       E                     dE             d eps       ncg     rms          rms(c)
DAV:   1    -0.872613236797E+03   -0.15609E-04   -0.54509E-04   704   0.377E-02    0.758E-03
DAV:   2    -0.872613237194E+03   -0.39738E-06   -0.68846E-06   728   0.458E-03
 109 F= -.87261324E+03 E0= -.87261324E+03  d E =-.157811E-04
 BRION: g(F)=  0.157E-04 g(S)=  0.000E+00 retain N=  2 mean eig= 0.23
 eig:   0.447  0.006
 bond charge predicted
       N       E                     dE             d eps       ncg     rms          rms(c)
DAV:   1    -0.872613243946E+03   -0.71494E-05   -0.14005E-04   704   0.206E-02    0.568E-03
DAV:   2    -0.872613244099E+03   -0.15259E-06   -0.25203E-06   600   0.292E-03
 110 F= -.87261324E+03 E0= -.87261324E+03  d E =-.690466E-05
 BRION: g(F)=  0.158E-04 g(S)=  0.000E+00 retain N=  2 mean eig= 1.72
 eig:   0.380  3.066
 bond charge predicted
       N       E                     dE             d eps       ncg     rms          rms(c)
DAV:   1    -0.872613253402E+03   -0.94557E-05   -0.18964E-04   688   0.216E-02    0.514E-03
DAV:   2    -0.872613253523E+03   -0.12069E-06   -0.21996E-06   568   0.256E-03
 111 F= -.87261325E+03 E0= -.87261325E+03  d E =-.942378E-05
 BRION: g(F)=  0.154E-04 g(S)=  0.000E+00 retain N=  2 mean eig= 0.25
 eig:   0.247  0.247
 bond charge predicted
       N       E                     dE             d eps       ncg     rms          rms(c)
DAV:   1    -0.872613260183E+03   -0.67810E-05   -0.93430E-05   672   0.157E-02    0.383E-03
DAV:   2    -0.872613260262E+03   -0.79010E-07   -0.12403E-06   448   0.202E-03
 112 F= -.87261326E+03 E0= -.87261326E+03  d E =-.673935E-05
 BRION: g(F)=  0.153E-04 g(S)=  0.000E+00 retain N=  3 mean eig= 2.32
 eig:   0.266  0.266  6.415
 bond charge predicted
       N       E                     dE             d eps       ncg     rms          rms(c)
DAV:   1    -0.872613263486E+03   -0.33031E-05   -0.19726E-05   656   0.682E-03    0.205E-03
DAV:   2    -0.872613263496E+03   -0.98225E-08   -0.21500E-07   368   0.831E-04
 113 F= -.87261326E+03 E0= -.87261326E+03  d E =-.323390E-05
 BRION: g(F)=  0.155E-04 g(S)=  0.000E+00 retain N=  2 mean eig= 0.04
 eig:   0.064  0.013
 bond charge predicted
       N       E                     dE             d eps       ncg     rms          rms(c)
DAV:   1    -0.872613269408E+03   -0.59216E-05   -0.13540E-04   704   0.205E-02    0.463E-03
DAV:   2    -0.872613269540E+03   -0.13172E-06   -0.23672E-06   616   0.295E-03
 114 F= -.87261327E+03 E0= -.87261327E+03  d E =-.604350E-05
 BRION: g(F)=  0.183E-04 g(S)=  0.000E+00 retain N=  3 mean eig= 0.41
 eig:   0.857  0.013  0.370
 bond charge predicted
       N       E                     dE             d eps       ncg     rms          rms(c)
DAV:   1    -0.872613264869E+03    0.45393E-05   -0.10030E-04   696   0.179E-02    0.354E-03
DAV:   2    -0.872613265062E+03   -0.19355E-06   -0.22181E-06   592   0.270E-03
 115 F= -.87261327E+03 E0= -.87261327E+03  d E =0.447750E-05
 BRION: g(F)=  0.184E-04 g(S)=  0.000E+00 retain N=  2 mean eig= 0.79
 eig:   0.286  1.285
 bond charge predicted
       N       E                     dE             d eps       ncg     rms          rms(c)
DAV:   1    -0.872613279107E+03   -0.14239E-04   -0.44895E-04   704   0.335E-02    0.601E-03
DAV:   2    -0.872613279541E+03   -0.43403E-06   -0.56901E-06   672   0.402E-03
 116 F= -.87261328E+03 E0= -.87261328E+03  d E =-.144793E-04
 BRION: g(F)=  0.152E-04 g(S)=  0.000E+00 retain N=  3 mean eig= 1.78
 eig:   4.640  0.143  0.553
 bond charge predicted
       N       E                     dE             d eps       ncg     rms          rms(c)
DAV:   1    -0.872613288923E+03   -0.98160E-05   -0.21104E-04   704   0.239E-02    0.606E-03
DAV:   2    -0.872613289098E+03   -0.17428E-06   -0.30525E-06   624   0.313E-03
 117 F= -.87261329E+03 E0= -.87261329E+03  d E =-.955629E-05
 BRION: g(F)=  0.163E-04 g(S)=  0.000E+00 retain N=  3 mean eig= 0.59
 eig:   1.149  0.304  0.304
 bond charge predicted
       N       E                     dE             d eps       ncg     rms          rms(c)
DAV:   1    -0.872613312657E+03   -0.23734E-04   -0.11751E-03   704   0.520E-02    0.110E-02
DAV:   2    -0.872613313581E+03   -0.92429E-06   -0.13155E-05   776   0.580E-03    0.666E-03
DAV:   3    -0.872613313393E+03    0.18776E-06   -0.51746E-07   496   0.148E-03
 118 F= -.87261331E+03 E0= -.87261331E+03  d E =-.242959E-04
 BRION: g(F)=  0.170E-04 g(S)=  0.000E+00 retain N=  2 mean eig= 0.69
 eig:   0.339  1.051
 bond charge predicted
       N       E                     dE             d eps       ncg     rms          rms(c)
DAV:   1    -0.872613283981E+03    0.29600E-04   -0.15878E-03   704   0.603E-02    0.113E-02
DAV:   2    -0.872613285328E+03   -0.13471E-05   -0.18454E-05   792   0.690E-03    0.695E-03
DAV:   3    -0.872613285036E+03    0.29206E-06   -0.61294E-07   504   0.172E-03
 119 F= -.87261329E+03 E0= -.87261329E+03  d E =0.283571E-04
 BRION: g(F)=  0.175E-04 g(S)=  0.000E+00 retain N=  3 mean eig= 1.09
 eig:   2.433  0.422  0.422
 bond charge predicted
       N       E                     dE             d eps       ncg     rms          rms(c)
DAV:   1    -0.872613284347E+03    0.98095E-06   -0.69143E-06   624   0.489E-03    0.118E-03
DAV:   2    -0.872613284358E+03   -0.10419E-07   -0.20171E-07   352   0.904E-04
 120 F= -.87261328E+03 E0= -.87261328E+03  d E =0.678468E-06
 BRION: g(F)=  0.162E-04 g(S)=  0.000E+00 retain N=  2 mean eig= 1.71
 eig:   0.322  3.104
 bond charge predicted
       N       E                     dE             d eps       ncg     rms          rms(c)
DAV:   1    -0.872613298388E+03   -0.14040E-04   -0.55023E-04   704   0.380E-02    0.737E-03
DAV:   2    -0.872613298917E+03   -0.52874E-06   -0.76753E-06   776   0.488E-03
 121 F= -.87261330E+03 E0= -.87261330E+03  d E =-.145586E-04
 BRION: g(F)=  0.174E-04 g(S)=  0.000E+00 retain N=  3 mean eig= 1.54
 eig:   4.064  0.054  0.505
 bond charge predicted
       N       E                     dE             d eps       ncg     rms          rms(c)
DAV:   1    -0.872613319046E+03   -0.20658E-04   -0.76013E-04   704   0.437E-02    0.102E-02
DAV:   2    -0.872613319710E+03   -0.66406E-06   -0.10049E-05   768   0.537E-03    0.595E-03
DAV:   3    -0.872613319544E+03    0.16654E-06   -0.34445E-07   464   0.145E-03
 122 F= -.87261332E+03 E0= -.87261332E+03  d E =-.206270E-04
 BRION: g(F)=  0.171E-04 g(S)=  0.000E+00 retain N=  3 mean eig= 1.25
 eig:   3.255  0.095  0.387
 bond charge predicted
       N       E                     dE             d eps       ncg     rms          rms(c)
DAV:   1    -0.872613310001E+03    0.97093E-05   -0.19031E-04   696   0.229E-02    0.497E-03
DAV:   2    -0.872613310177E+03   -0.17646E-06   -0.28915E-06   624   0.309E-03
 123 F= -.87261331E+03 E0= -.87261331E+03  d E =0.936628E-05
 BRION: g(F)=  0.167E-04 g(S)=  0.000E+00 retain N=  2 mean eig= 0.38
 eig:   0.501  0.269
 bond charge predicted
       N       E                     dE             d eps       ncg     rms          rms(c)
DAV:   1    -0.872613323213E+03   -0.13212E-04   -0.35898E-04   704   0.291E-02    0.436E-03
DAV:   2    -0.872613323574E+03   -0.36087E-06   -0.41997E-06   624   0.336E-03
 124 F= -.87261332E+03 E0= -.87261332E+03  d E =-.133965E-04
 BRION: g(F)=  0.152E-04 g(S)=  0.000E+00 retain N=  3 mean eig= 1.11
 eig:   2.274  0.763  0.294
 bond charge predicted
       N       E                     dE             d eps       ncg     rms          rms(c)
DAV:   1    -0.872613351223E+03   -0.28010E-04   -0.17551E-03   704   0.635E-02    0.139E-02
DAV:   2    -0.872613352690E+03   -0.14665E-05   -0.21368E-05   792   0.764E-03    0.815E-03
DAV:   3    -0.872613352316E+03    0.37346E-06   -0.83516E-07   552   0.209E-03
 125 F= -.87261335E+03 E0= -.87261335E+03  d E =-.287425E-04
 BRION: g(F)=  0.271E-04 g(S)=  0.000E+00 retain N=  4 mean eig= 0.99
 eig:   1.715  1.715  0.450  0.082
 bond charge predicted
       N       E                     dE             d eps       ncg     rms          rms(c)
DAV:   1    -0.872613460036E+03   -0.10735E-03   -0.32515E-02   704   0.270E-01    0.516E-02
DAV:   2    -0.872613486895E+03   -0.26859E-04   -0.35491E-04   792   0.296E-02    0.315E-02
DAV:   3    -0.872613482561E+03    0.43344E-05   -0.12100E-05   736   0.675E-03    0.108E-02
DAV:   4    -0.872613482723E+03   -0.16255E-06   -0.37994E-06   616   0.352E-03
 126 F= -.87261348E+03 E0= -.87261348E+03  d E =-.130407E-03
 BRION: g(F)=  0.255E-04 g(S)=  0.000E+00 retain N=  5 mean eig= 2.00
 eig:   4.368  4.368  0.509  0.509  0.229
 bond charge predicted
       N       E                     dE             d eps       ncg     rms          rms(c)
DAV:   1    -0.872613549036E+03   -0.66475E-04   -0.10206E-02   704   0.148E-01    0.292E-02
DAV:   2    -0.872613557678E+03   -0.86420E-05   -0.11085E-04   792   0.163E-02    0.179E-02
DAV:   3    -0.872613556550E+03    0.11282E-05   -0.37113E-06   656   0.378E-03    0.586E-03
DAV:   4    -0.872613556670E+03   -0.12044E-06   -0.11439E-06   544   0.188E-03
 127 F= -.87261356E+03 E0= -.87261356E+03  d E =-.739468E-04
 BRION: g(F)=  0.221E-04 g(S)=  0.000E+00 retain N=  4 mean eig= 1.81
 eig:   2.471  2.471  0.723  1.558
 bond charge predicted
       N       E                     dE             d eps       ncg     rms          rms(c)
DAV:   1    -0.872613556582E+03   -0.32494E-07   -0.34786E-05   688   0.104E-02    0.235E-03
DAV:   2    -0.872613556636E+03   -0.53791E-07   -0.84219E-07   528   0.175E-03
 128 F= -.87261356E+03 E0= -.87261356E+03  d E =0.341533E-07
 BRION: g(F)=  0.209E-04 g(S)=  0.000E+00 retain N=  2 mean eig= 0.72
 eig:   0.809  0.625
 bond charge predicted
       N       E                     dE             d eps       ncg     rms          rms(c)
DAV:   1    -0.872613560396E+03   -0.38140E-05   -0.73186E-04   704   0.525E-02    0.117E-02
DAV:   2    -0.872613561928E+03   -0.15321E-05   -0.22067E-05   816   0.874E-03    0.533E-03
DAV:   3    -0.872613561516E+03    0.41225E-06   -0.72021E-07   504   0.233E-03
 129 F= -.87261356E+03 E0= -.87261356E+03  d E =-.488003E-05
 BRION: g(F)=  0.358E-04 g(S)=  0.000E+00 retain N=  3 mean eig= 0.60
 eig:   0.828  0.623  0.336
 bond charge predicted
       N       E                     dE             d eps       ncg     rms          rms(c)
DAV:   1    -0.872613564638E+03   -0.27102E-05   -0.32719E-04   704   0.355E-02    0.852E-03
DAV:   2    -0.872613565409E+03   -0.77103E-06   -0.11685E-05   824   0.620E-03    0.351E-03
DAV:   3    -0.872613565132E+03    0.27740E-06   -0.40305E-07   432   0.178E-03
 130 F= -.87261357E+03 E0= -.87261357E+03  d E =-.361603E-05
 BRION: g(F)=  0.167E-04 g(S)=  0.000E+00 retain N=  1 mean eig= 0.30
 eig:   0.302
 bond charge predicted
       N       E                     dE             d eps       ncg     rms          rms(c)
DAV:   1    -0.872613579107E+03   -0.13697E-04   -0.64399E-04   704   0.450E-02    0.879E-03
DAV:   2    -0.872613579931E+03   -0.82423E-06   -0.11594E-05   808   0.613E-03    0.432E-03
DAV:   3    -0.872613579750E+03    0.18097E-06   -0.29526E-07   488   0.141E-03
 131 F= -.87261358E+03 E0= -.87261358E+03  d E =-.146181E-04
 BRION: g(F)=  0.217E-04 g(S)=  0.000E+00 retain N=  2 mean eig= 0.31
 eig:   0.313  0.313
 bond charge predicted
       N       E                     dE             d eps       ncg     rms          rms(c)
DAV:   1    -0.872613584944E+03   -0.50127E-05   -0.13432E-04   704   0.205E-02    0.458E-03
DAV:   2    -0.872613585131E+03   -0.18668E-06   -0.28980E-06   632   0.314E-03
 132 F= -.87261359E+03 E0= -.87261359E+03  d E =-.538040E-05
 BRION: g(F)=  0.154E-04 g(S)=  0.000E+00 retain N=  1 mean eig= 0.28
 eig:   0.278
 bond charge predicted
       N       E                     dE             d eps       ncg     rms          rms(c)
DAV:   1    -0.872613599776E+03   -0.14832E-04   -0.51364E-04   704   0.373E-02    0.720E-03
DAV:   2    -0.872613600264E+03   -0.48818E-06   -0.69512E-06   728   0.454E-03
 133 F= -.87261360E+03 E0= -.87261360E+03  d E =-.151337E-04
 BRION: g(F)=  0.159E-04 g(S)=  0.000E+00 retain N=  2 mean eig= 0.42
 eig:   0.415  0.415
 bond charge predicted
       N       E                     dE             d eps       ncg     rms          rms(c)
DAV:   1    -0.872613607085E+03   -0.73094E-05   -0.14195E-04   696   0.198E-02    0.510E-03
DAV:   2    -0.872613607203E+03   -0.11803E-06   -0.21164E-06   600   0.265E-03
 134 F= -.87261361E+03 E0= -.87261361E+03  d E =-.693921E-05
 BRION: g(F)=  0.156E-04 g(S)=  0.000E+00 retain N=  1 mean eig= 0.14
 eig:   0.139
 bond charge predicted
       N       E                     dE             d eps       ncg     rms          rms(c)
DAV:   1    -0.872613619336E+03   -0.12251E-04   -0.34761E-04   704   0.291E-02    0.619E-03
DAV:   2    -0.872613619592E+03   -0.25600E-06   -0.38795E-06   656   0.327E-03
 135 F= -.87261362E+03 E0= -.87261362E+03  d E =-.123890E-04
 BRION: g(F)=  0.156E-04 g(S)=  0.000E+00 retain N=  2 mean eig= 0.60
 eig:   0.568  0.637
 bond charge predicted
       N       E                     dE             d eps       ncg     rms          rms(c)
DAV:   1    -0.872613629280E+03   -0.99437E-05   -0.24212E-04   704   0.266E-02    0.607E-03
DAV:   2    -0.872613629518E+03   -0.23797E-06   -0.37829E-06   648   0.354E-03
 136 F= -.87261363E+03 E0= -.87261363E+03  d E =-.992565E-05
 BRION: g(F)=  0.175E-04 g(S)=  0.000E+00 retain N=  2 mean eig= 1.49
 eig:   0.196  2.783
 bond charge predicted
       N       E                     dE             d eps       ncg     rms          rms(c)
DAV:   1    -0.872613634856E+03   -0.55757E-05   -0.15506E-04   704   0.233E-02    0.614E-03
DAV:   2    -0.872613635131E+03   -0.27470E-06   -0.40217E-06   680   0.375E-03
 137 F= -.87261364E+03 E0= -.87261364E+03  d E =-.561247E-05
 BRION: g(F)=  0.184E-04 g(S)=  0.000E+00 retain N=  2 mean eig= 0.12
 eig:   0.126  0.106
 bond charge predicted
       N       E                     dE             d eps       ncg     rms          rms(c)
DAV:   1    -0.872613640870E+03   -0.60139E-05   -0.11026E-04   688   0.175E-02    0.410E-03
DAV:   2    -0.872613641003E+03   -0.13324E-06   -0.18301E-06   560   0.241E-03
 138 F= -.87261364E+03 E0= -.87261364E+03  d E =-.587245E-05
 BRION: g(F)=  0.152E-04 g(S)=  0.000E+00 retain N=  2 mean eig= 1.64
 eig:   0.287  3.000
 bond charge predicted
       N       E                     dE             d eps       ncg     rms          rms(c)
DAV:   1    -0.872613654908E+03   -0.14038E-04   -0.44513E-04   704   0.333E-02    0.677E-03
DAV:   2    -0.872613655264E+03   -0.35671E-06   -0.52255E-06   672   0.380E-03
 139 F= -.87261366E+03 E0= -.87261366E+03  d E =-.142614E-04
 BRION: g(F)=  0.147E-04 g(S)=  0.000E+00 retain N=  3 mean eig= 1.52
 eig:   0.326  0.821  3.413
 bond charge predicted
       N       E                     dE             d eps       ncg     rms          rms(c)
DAV:   1    -0.872613665371E+03   -0.10463E-04   -0.27560E-04   704   0.280E-02    0.658E-03
DAV:   2    -0.872613665634E+03   -0.26299E-06   -0.40433E-06   664   0.361E-03
 140 F= -.87261367E+03 E0= -.87261367E+03  d E =-.103694E-04
 BRION: g(F)=  0.159E-04 g(S)=  0.000E+00 retain N=  3 mean eig= 2.04
 eig:   5.432  0.179  0.516
 bond charge predicted
       N       E                     dE             d eps       ncg     rms          rms(c)
DAV:   1    -0.872613706948E+03   -0.41577E-04   -0.42751E-03   704   0.102E-01    0.198E-02
DAV:   2    -0.872613710675E+03   -0.37271E-05   -0.51536E-05   792   0.118E-02    0.120E-02
DAV:   3    -0.872613709951E+03    0.72406E-06   -0.17141E-06   576   0.284E-03
 141 F= -.87261371E+03 E0= -.87261371E+03  d E =-.443173E-04
 BRION: g(F)=  0.200E-04 g(S)=  0.000E+00 retain N=  2 mean eig= 0.23
 eig:   0.225  0.225
 bond charge predicted
       N       E                     dE             d eps       ncg     rms          rms(c)
DAV:   1    -0.872613676504E+03    0.34171E-04   -0.23238E-03   704   0.757E-02    0.136E-02
DAV:   2    -0.872613678697E+03   -0.21932E-05   -0.29759E-05   792   0.906E-03    0.829E-03
DAV:   3    -0.872613678225E+03    0.47243E-06   -0.89009E-07   544   0.221E-03
 142 F= -.87261368E+03 E0= -.87261368E+03  d E =0.317264E-04
 BRION: g(F)=  0.154E-04 g(S)=  0.000E+00 retain N=  2 mean eig= 4.10
 eig:   0.512  7.694
 bond charge predicted
       N       E                     dE             d eps       ncg     rms          rms(c)
DAV:   1    -0.872613690918E+03   -0.12221E-04   -0.43313E-04   704   0.337E-02    0.620E-03
DAV:   2    -0.872613691381E+03   -0.46263E-06   -0.64035E-06   712   0.437E-03
 143 F= -.87261369E+03 E0= -.87261369E+03  d E =-.131561E-04
 BRION: g(F)=  0.166E-04 g(S)=  0.000E+00 retain N=  2 mean eig= 0.64
 eig:   0.638  0.638
 bond charge predicted
       N       E                     dE             d eps       ncg     rms          rms(c)
DAV:   1    -0.872613701431E+03   -0.10513E-04   -0.33209E-04   704   0.317E-02    0.742E-03
DAV:   2    -0.872613701816E+03   -0.38546E-06   -0.58437E-06   736   0.435E-03
 144 F= -.87261370E+03 E0= -.87261370E+03  d E =-.104354E-04
 BRION: g(F)=  0.157E-04 g(S)=  0.000E+00 retain N=  3 mean eig= 2.78
 eig:   7.595  0.370  0.370
 bond charge predicted
       N       E                     dE             d eps       ncg     rms          rms(c)
DAV:   1    -0.872613737023E+03   -0.35592E-04   -0.31172E-03   704   0.851E-02    0.174E-02
DAV:   2    -0.872613739496E+03   -0.24730E-05   -0.36054E-05   800   0.972E-03    0.105E-02
DAV:   3    -0.872613738924E+03    0.57206E-06   -0.13411E-06   568   0.253E-03
 145 F= -.87261374E+03 E0= -.87261374E+03  d E =-.371078E-04
 BRION: g(F)=  0.188E-04 g(S)=  0.000E+00 retain N=  2 mean eig= 0.21
 eig:   0.306  0.120
 bond charge predicted
       N       E                     dE             d eps       ncg     rms          rms(c)
DAV:   1    -0.872613717730E+03    0.21766E-04   -0.10831E-03   704   0.499E-02    0.933E-03
DAV:   2    -0.872613718673E+03   -0.94325E-06   -0.13703E-05   800   0.605E-03    0.564E-03
DAV:   3    -0.872613718413E+03    0.25989E-06   -0.45005E-07   456   0.158E-03
 146 F= -.87261372E+03 E0= -.87261372E+03  d E =0.205109E-04
 BRION: g(F)=  0.163E-04 g(S)=  0.000E+00 retain N=  3 mean eig= 1.00
 eig:   2.525  0.329  0.149
 bond charge predicted
       N       E                     dE             d eps       ncg     rms          rms(c)
DAV:   1    -0.872613719517E+03   -0.84356E-06   -0.80429E-06   640   0.507E-03    0.108E-03
DAV:   2    -0.872613719530E+03   -0.13068E-07   -0.24163E-07   360   0.952E-04
 147 F= -.87261372E+03 E0= -.87261372E+03  d E =-.111652E-05
 BRION: g(F)=  0.153E-04 g(S)=  0.000E+00 retain N=  2 mean eig= 0.22
 eig:   0.221  0.221
 bond charge predicted
       N       E                     dE             d eps       ncg     rms          rms(c)
DAV:   1    -0.872613737549E+03   -0.18032E-04   -0.79588E-04   704   0.441E-02    0.784E-03
DAV:   2    -0.872613738255E+03   -0.70657E-06   -0.95084E-06   768   0.505E-03
 148 F= -.87261374E+03 E0= -.87261374E+03  d E =-.187257E-04
 BRION: g(F)=  0.138E-04 g(S)=  0.000E+00 retain N=  3 mean eig= 0.57
 eig:   0.366  0.366  0.963
 bond charge predicted
       N       E                     dE             d eps       ncg     rms          rms(c)
DAV:   1    -0.872613753004E+03   -0.15455E-04   -0.51242E-04   704   0.368E-02    0.912E-03
DAV:   2    -0.872613753451E+03   -0.44680E-06   -0.72848E-06   744   0.466E-03
 149 F= -.87261375E+03 E0= -.87261375E+03  d E =-.151952E-04
 BRION: g(F)=  0.173E-04 g(S)=  0.000E+00 retain N=  4 mean eig= 1.76
 eig:   5.796  0.353  0.454  0.454
 bond charge predicted
       N       E                     dE             d eps       ncg     rms          rms(c)
DAV:   1    -0.872613835853E+03   -0.82849E-04   -0.20806E-02   704   0.219E-01    0.422E-02
DAV:   2    -0.872613852970E+03   -0.17117E-04   -0.23413E-04   792   0.243E-02    0.260E-02
DAV:   3    -0.872613849848E+03    0.31220E-05   -0.85188E-06   720   0.564E-03    0.894E-03
DAV:   4    -0.872613849997E+03   -0.14871E-06   -0.27491E-06   600   0.290E-03
 150 F= -.87261385E+03 E0= -.87261385E+03  d E =-.965464E-04
 BRION: g(F)=  0.219E-04 g(S)=  0.000E+00 retain N=  3 mean eig= 0.99
 eig:   1.269  1.269  0.428
 bond charge predicted
       N       E                     dE             d eps       ncg     rms          rms(c)
DAV:   1    -0.872613813229E+03    0.36619E-04   -0.28711E-03   704   0.855E-02    0.166E-02
DAV:   2    -0.872613815711E+03   -0.24814E-05   -0.36795E-05   792   0.104E-02    0.924E-03
DAV:   3    -0.872613815019E+03    0.69161E-06   -0.12269E-06   560   0.280E-03
 151 F= -.87261382E+03 E0= -.87261382E+03  d E =0.349778E-04
 BRION: g(F)=  0.235E-04 g(S)=  0.000E+00 retain N=  3 mean eig= 1.58
 eig:   0.537  0.537  3.654
 bond charge predicted
       N       E                     dE             d eps       ncg     rms          rms(c)
DAV:   1    -0.872613753848E+03    0.61862E-04   -0.70366E-03   704   0.128E-01    0.240E-02
DAV:   2    -0.872613759877E+03   -0.60284E-05   -0.79723E-05   800   0.143E-02    0.146E-02
DAV:   3    -0.872613758878E+03    0.99849E-06   -0.25218E-06   608   0.335E-03
 152 F= -.87261376E+03 E0= -.87261376E+03  d E =0.561408E-04
 BRION: g(F)=  0.157E-04 g(S)=  0.000E+00 retain N=  3 mean eig= 2.24
 eig:   5.422  0.643  0.643
 bond charge predicted
       N       E                     dE             d eps       ncg     rms          rms(c)
DAV:   1    -0.872613786402E+03   -0.26525E-04   -0.20147E-03   704   0.704E-02    0.125E-02
DAV:   2    -0.872613788302E+03   -0.19002E-05   -0.25751E-05   792   0.836E-03    0.766E-03
DAV:   3    -0.872613787893E+03    0.40927E-06   -0.74176E-07   536   0.191E-03
 153 F= -.87261379E+03 E0= -.87261379E+03  d E =-.290145E-04
 BRION: g(F)=  0.161E-04 g(S)=  0.000E+00 retain N=  4 mean eig= 2.01
 eig:   5.542  0.799  0.854  0.854
 bond charge predicted
       N       E                     dE             d eps       ncg     rms          rms(c)
DAV:   1    -0.872613800694E+03   -0.12392E-04   -0.42242E-04   704   0.316E-02    0.624E-03
DAV:   2    -0.872613801064E+03   -0.36941E-06   -0.50221E-06   696   0.377E-03
 154 F= -.87261380E+03 E0= -.87261380E+03  d E =-.131710E-04
 BRION: g(F)=  0.149E-04 g(S)=  0.000E+00 retain N=  4 mean eig= 1.57
 eig:   2.635  2.635  0.510  0.510
 bond charge predicted
       N       E                     dE             d eps       ncg     rms          rms(c)
DAV:   1    -0.872613848228E+03   -0.47533E-04   -0.52736E-03   704   0.111E-01    0.223E-02
DAV:   2    -0.872613852581E+03   -0.43538E-05   -0.60428E-05   768   0.124E-02    0.137E-02
DAV:   3    -0.872613851759E+03    0.82190E-06   -0.21674E-06   608   0.302E-03
 155 F= -.87261385E+03 E0= -.87261385E+03  d E =-.506956E-04
 BRION: g(F)=  0.226E-04 g(S)=  0.000E+00 retain N=  3 mean eig= 2.80
 eig:   7.527  0.385  0.497
 bond charge predicted
       N       E                     dE             d eps       ncg     rms          rms(c)
DAV:   1    -0.872613877314E+03   -0.24733E-04   -0.19216E-03   704   0.698E-02    0.137E-02
DAV:   2    -0.872613879227E+03   -0.19132E-05   -0.26052E-05   808   0.858E-03    0.727E-03
DAV:   3    -0.872613878860E+03    0.36746E-06   -0.76206E-07   544   0.212E-03
 156 F= -.87261388E+03 E0= -.87261388E+03  d E =-.271006E-04
 BRION: g(F)=  0.260E-04 g(S)=  0.000E+00 retain N=  3 mean eig= 0.80
 eig:   0.480  0.480  1.428
 bond charge predicted
       N       E                     dE             d eps       ncg     rms          rms(c)
DAV:   1    -0.872613826345E+03    0.52882E-04   -0.53448E-03   704   0.111E-01    0.209E-02
DAV:   2    -0.872613831071E+03   -0.47256E-05   -0.63673E-05   792   0.129E-02    0.126E-02
DAV:   3    -0.872613830119E+03    0.95134E-06   -0.19761E-06   576   0.315E-03
 157 F= -.87261383E+03 E0= -.87261383E+03  d E =0.487407E-04
 BRION: g(F)=  0.163E-04 g(S)=  0.000E+00 retain N=  3 mean eig= 2.39
 eig:   0.580  0.012  6.564
 bond charge predicted
       N       E                     dE             d eps       ncg     rms          rms(c)
DAV:   1    -0.872613832926E+03   -0.18554E-05   -0.36386E-05   664   0.110E-02    0.245E-03
DAV:   2    -0.872613832959E+03   -0.33397E-07   -0.94726E-07   416   0.196E-03
 158 F= -.87261383E+03 E0= -.87261383E+03  d E =-.284018E-05
 BRION: g(F)=  0.149E-04 g(S)=  0.000E+00 retain N=  3 mean eig= 1.28
 eig:   3.301  0.103  0.433
 bond charge predicted
       N       E                     dE             d eps       ncg     rms          rms(c)
DAV:   1    -0.872613842672E+03   -0.97463E-05   -0.48021E-04   704   0.360E-02    0.697E-03
DAV:   2    -0.872613843089E+03   -0.41645E-06   -0.69826E-06   768   0.474E-03
 159 F= -.87261384E+03 E0= -.87261384E+03  d E =-.101293E-04
 BRION: g(F)=  0.200E-04 g(S)=  0.000E+00 retain N=  4 mean eig= 1.02
 eig:   3.299  0.166  0.166  0.446
 bond charge predicted
       N       E                     dE             d eps       ncg     rms          rms(c)
DAV:   1    -0.872613845080E+03   -0.24073E-05   -0.74724E-05   696   0.164E-02    0.399E-03
DAV:   2    -0.872613845271E+03   -0.19151E-06   -0.23005E-06   552   0.273E-03
 160 F= -.87261385E+03 E0= -.87261385E+03  d E =-.218233E-05
 BRION: g(F)=  0.145E-04 g(S)=  0.000E+00 retain N=  1 mean eig= 0.27
 eig:   0.271
 bond charge predicted
       N       E                     dE             d eps       ncg     rms          rms(c)
DAV:   1    -0.872613858581E+03   -0.13502E-04   -0.53260E-04   704   0.377E-02    0.768E-03
DAV:   2    -0.872613859064E+03   -0.48261E-06   -0.73653E-06   768   0.478E-03
 161 F= -.87261386E+03 E0= -.87261386E+03  d E =-.137926E-04
 BRION: g(F)=  0.171E-04 g(S)=  0.000E+00 retain N=  2 mean eig= 0.25
 eig:   0.303  0.197
 bond charge predicted
       N       E                     dE             d eps       ncg     rms          rms(c)
DAV:   1    -0.872613863247E+03   -0.46656E-05   -0.73069E-05   688   0.159E-02    0.466E-03
DAV:   2    -0.872613863357E+03   -0.10985E-06   -0.18549E-06   528   0.253E-03
[...]
 eig:   0.278
 bond charge predicted
       N       E                     dE             d eps       ncg     rms          rms(c)
DAV:   1    -0.872614326505E+03   -0.10760E-04   -0.42875E-04   704   0.346E-02    0.819E-03
DAV:   2    -0.872614326841E+03   -0.33620E-06   -0.60195E-06   720   0.432E-03
 217 F= -.87261433E+03 E0= -.87261433E+03  d E =-.109325E-04
 BRION: g(F)=  0.149E-04 g(S)=  0.000E+00 retain N=  2 mean eig= 0.29
 eig:   0.242  0.346
 bond charge predicted
       N       E                     dE             d eps       ncg     rms          rms(c)
DAV:   1    -0.872614330764E+03   -0.42590E-05   -0.11147E-04   696   0.196E-02    0.618E-03
DAV:   2    -0.872614330928E+03   -0.16355E-06   -0.27360E-06   584   0.297E-03
 218 F= -.87261433E+03 E0= -.87261433E+03  d E =-.408637E-05
 BRION: g(F)=  0.129E-04 g(S)=  0.000E+00 retain N=  1 mean eig= 0.26
 eig:   0.262
 bond charge predicted
       N       E                     dE             d eps       ncg     rms          rms(c)
DAV:   1    -0.872614341671E+03   -0.10906E-04   -0.43867E-04   704   0.352E-02    0.841E-03
DAV:   2    -0.872614342014E+03   -0.34375E-06   -0.62026E-06   752   0.443E-03
 219 F= -.87261434E+03 E0= -.87261434E+03  d E =-.110866E-04
 BRION: g(F)=  0.143E-04 g(S)=  0.000E+00 retain N=  2 mean eig= 0.30
 eig:   0.217  0.384
 bond charge predicted
       N       E                     dE             d eps       ncg     rms          rms(c)
DAV:   1    -0.872614346170E+03   -0.44995E-05   -0.12194E-04   696   0.208E-02    0.664E-03
DAV:   2    -0.872614346332E+03   -0.16198E-06   -0.28917E-06   640   0.311E-03
 220 F= -.87261435E+03 E0= -.87261435E+03  d E =-.431771E-05
 BRION: g(F)=  0.129E-04 g(S)=  0.000E+00 retain N=  1 mean eig= 0.26
 eig:   0.262
 bond charge predicted
       N       E                     dE             d eps       ncg     rms          rms(c)
DAV:   1    -0.872614356679E+03   -0.10509E-04   -0.40990E-04   704   0.338E-02    0.809E-03
DAV:   2    -0.872614356987E+03   -0.30786E-06   -0.57870E-06   704   0.428E-03
 221 F= -.87261436E+03 E0= -.87261436E+03  d E =-.106549E-04
 BRION: g(F)=  0.146E-04 g(S)=  0.000E+00 retain N=  2 mean eig= 0.29
 eig:   0.209  0.371
 bond charge predicted
       N       E                     dE             d eps       ncg     rms          rms(c)
DAV:   1    -0.872614360967E+03   -0.42885E-05   -0.11505E-04   696   0.201E-02    0.621E-03
DAV:   2    -0.872614361136E+03   -0.16830E-06   -0.28493E-06   600   0.306E-03
 222 F= -.87261436E+03 E0= -.87261436E+03  d E =-.414892E-05
 BRION: g(F)=  0.137E-04 g(S)=  0.000E+00 retain N=  3 mean eig= 2.10
 eig:   5.713  0.214  0.365
 bond charge predicted
       N       E                     dE             d eps       ncg     rms          rms(c)
DAV:   1    -0.872614362532E+03   -0.15649E-05   -0.48898E-06   576   0.358E-03    0.186E-03
DAV:   2    -0.872614362521E+03    0.11787E-07   -0.11102E-07   376   0.684E-04
 223 F= -.87261436E+03 E0= -.87261436E+03  d E =-.138477E-05
 BRION: g(F)=  0.133E-04 g(S)=  0.000E+00 retain N=  2 mean eig= 0.18
 eig:   0.323  0.038
 bond charge predicted
       N       E                     dE             d eps       ncg     rms          rms(c)
DAV:   1    -0.872614374107E+03   -0.11575E-04   -0.38831E-04   704   0.311E-02    0.608E-03
DAV:   2    -0.872614374456E+03   -0.34845E-06   -0.47249E-06   656   0.367E-03
 224 F= -.87261437E+03 E0= -.87261437E+03  d E =-.119351E-04
 BRION: g(F)=  0.127E-04 g(S)=  0.000E+00 retain N=  3 mean eig= 0.25
 eig:   0.566  0.163  0.016
 bond charge predicted
       N       E                     dE             d eps       ncg     rms          rms(c)
DAV:   1    -0.872614380186E+03   -0.60784E-05   -0.12158E-04   704   0.194E-02    0.528E-03
DAV:   2    -0.872614380294E+03   -0.10809E-06   -0.22695E-06   592   0.282E-03
 225 F= -.87261438E+03 E0= -.87261438E+03  d E =-.583802E-05
 BRION: g(F)=  0.136E-04 g(S)=  0.000E+00 retain N=  2 mean eig= 2.89
 eig:   0.415  5.356
 bond charge predicted
       N       E                     dE             d eps       ncg     rms          rms(c)
DAV:   1    -0.872614396515E+03   -0.16329E-04   -0.88212E-04   704   0.474E-02    0.992E-03
DAV:   2    -0.872614397269E+03   -0.75412E-06   -0.11268E-05   808   0.563E-03    0.560E-03
DAV:   3    -0.872614397085E+03    0.18428E-06   -0.39195E-07   504   0.137E-03
 226 F= -.87261440E+03 E0= -.87261440E+03  d E =-.167912E-04
 BRION: g(F)=  0.160E-04 g(S)=  0.000E+00 retain N=  3 mean eig= 2.28
 eig:   6.204  0.388  0.257
 bond charge predicted
       N       E                     dE             d eps       ncg     rms          rms(c)
DAV:   1    -0.872614404961E+03   -0.76917E-05   -0.18307E-04   704   0.228E-02    0.491E-03
DAV:   2    -0.872614405120E+03   -0.15874E-06   -0.27675E-06   576   0.296E-03
 227 F= -.87261441E+03 E0= -.87261441E+03  d E =-.803473E-05
 BRION: g(F)=  0.128E-04 g(S)=  0.000E+00 retain N=  3 mean eig= 2.05
 eig:   5.871  0.248  0.044
 bond charge predicted
       N       E                     dE             d eps       ncg     rms          rms(c)
DAV:   1    -0.872614403493E+03    0.14674E-05   -0.67772E-05   688   0.160E-02    0.435E-03
DAV:   2    -0.872614403591E+03   -0.97840E-07   -0.16788E-06   576   0.244E-03
 228 F= -.87261440E+03 E0= -.87261440E+03  d E =0.152832E-05
 BRION: g(F)=  0.142E-04 g(S)=  0.000E+00 retain N=  2 mean eig= 0.31
 eig:   0.388  0.229
 bond charge predicted
       N       E                     dE             d eps       ncg     rms          rms(c)
DAV:   1    -0.872614417451E+03   -0.13957E-04   -0.73726E-04   704   0.443E-02    0.839E-03
DAV:   2    -0.872614418215E+03   -0.76441E-06   -0.10372E-05   808   0.554E-03    0.448E-03
DAV:   3    -0.872614418067E+03    0.14775E-06   -0.28285E-07   472   0.132E-03
 229 F= -.87261442E+03 E0= -.87261442E+03  d E =-.144759E-04
 BRION: g(F)=  0.164E-04 g(S)=  0.000E+00 retain N=  3 mean eig= 0.27
 eig:   0.384  0.186  0.243
 bond charge predicted
       N       E                     dE             d eps       ncg     rms          rms(c)
DAV:   1    -0.872614422310E+03   -0.40947E-05   -0.75031E-05   696   0.161E-02    0.404E-03
DAV:   2    -0.872614422377E+03   -0.66851E-07   -0.17425E-06   528   0.254E-03
 230 F= -.87261442E+03 E0= -.87261442E+03  d E =-.430930E-05
 BRION: g(F)=  0.125E-04 g(S)=  0.000E+00 retain N=  1 mean eig= 0.33
 eig:   0.333
 bond charge predicted
       N       E                     dE             d eps       ncg     rms          rms(c)
DAV:   1    -0.872614434449E+03   -0.12139E-04   -0.60285E-04   704   0.412E-02    0.845E-03
DAV:   2    -0.872614435058E+03   -0.60954E-06   -0.91366E-06   808   0.523E-03
 231 F= -.87261444E+03 E0= -.87261444E+03  d E =-.126817E-04
 BRION: g(F)=  0.152E-04 g(S)=  0.000E+00 retain N=  2 mean eig= 0.30
 eig:   0.368  0.232
 bond charge predicted
       N       E                     dE             d eps       ncg     rms          rms(c)
DAV:   1    -0.872614438624E+03   -0.41756E-05   -0.86945E-05   696   0.168E-02    0.513E-03
DAV:   2    -0.872614438801E+03   -0.17687E-06   -0.23139E-06   552   0.265E-03
 232 F= -.87261444E+03 E0= -.87261444E+03  d E =-.374292E-05
 BRION: g(F)=  0.123E-04 g(S)=  0.000E+00 retain N=  1 mean eig= 0.22
 eig:   0.223
 bond charge predicted
       N       E                     dE             d eps       ncg     rms          rms(c)
DAV:   1    -0.872614450080E+03   -0.11455E-04   -0.38360E-04   704   0.310E-02    0.666E-03
DAV:   2    -0.872614450360E+03   -0.28070E-06   -0.44992E-06   672   0.358E-03
 233 F= -.87261445E+03 E0= -.87261445E+03  d E =-.115592E-04
 BRION: g(F)=  0.122E-04 g(S)=  0.000E+00 retain N=  2 mean eig= 0.32
 eig:   0.017  0.616
 bond charge predicted
       N       E                     dE             d eps       ncg     rms          rms(c)
DAV:   1    -0.872614458902E+03   -0.88219E-05   -0.23502E-04   704   0.258E-02    0.694E-03
DAV:   2    -0.872614459081E+03   -0.17992E-06   -0.33615E-06   640   0.330E-03
 234 F= -.87261446E+03 E0= -.87261446E+03  d E =-.872112E-05
 BRION: g(F)=  0.139E-04 g(S)=  0.000E+00 retain N=  3 mean eig= 1.04
 eig:   2.425  0.107  0.602
 bond charge predicted
       N       E                     dE             d eps       ncg     rms          rms(c)
DAV:   1    -0.872614467132E+03   -0.82307E-05   -0.16768E-04   688   0.195E-02    0.519E-03
DAV:   2    -0.872614467213E+03   -0.81185E-07   -0.18188E-06   576   0.228E-03
 235 F= -.87261447E+03 E0= -.87261447E+03  d E =-.813198E-05
 BRION: g(F)=  0.135E-04 g(S)=  0.000E+00 retain N=  3 mean eig= 2.11
 eig:   5.562  0.543  0.216
 bond charge predicted
       N       E                     dE             d eps       ncg     rms          rms(c)
DAV:   1    -0.872614462786E+03    0.43459E-05   -0.90474E-05   688   0.164E-02    0.363E-03
DAV:   2    -0.872614462906E+03   -0.11959E-06   -0.20133E-06   568   0.258E-03
 236 F= -.87261446E+03 E0= -.87261446E+03  d E =0.430745E-05
 BRION: g(F)=  0.157E-04 g(S)=  0.000E+00 retain N=  3 mean eig= 0.43
 eig:   0.382  0.382  0.534
 bond charge predicted
       N       E                     dE             d eps       ncg     rms          rms(c)
DAV:   1    -0.872614467637E+03   -0.48502E-05   -0.56756E-05   656   0.117E-02    0.196E-03
DAV:   2    -0.872614467706E+03   -0.69333E-07   -0.79442E-07   400   0.154E-03
 237 F= -.87261447E+03 E0= -.87261447E+03  d E =-.479995E-05
 BRION: g(F)=  0.135E-04 g(S)=  0.000E+00 retain N=  4 mean eig= 2.40
 eig:   7.907  0.712  0.706  0.292
 bond charge predicted
       N       E                     dE             d eps       ncg     rms          rms(c)
DAV:   1    -0.872614487167E+03   -0.19530E-04   -0.11075E-03   704   0.522E-02    0.102E-02
DAV:   2    -0.872614488158E+03   -0.99147E-06   -0.13850E-05   792   0.616E-03    0.596E-03
DAV:   3    -0.872614487951E+03    0.20712E-06   -0.42545E-07   504   0.153E-03
 238 F= -.87261449E+03 E0= -.87261449E+03  d E =-.202454E-04
 BRION: g(F)=  0.160E-04 g(S)=  0.000E+00 retain N=  3 mean eig= 1.83
 eig:   4.796  0.202  0.487
 bond charge predicted
       N       E                     dE             d eps       ncg     rms          rms(c)
DAV:   1    -0.872614498632E+03   -0.10473E-04   -0.45108E-04   704   0.339E-02    0.642E-03
DAV:   2    -0.872614499096E+03   -0.46441E-06   -0.63915E-06   760   0.438E-03
 239 F= -.87261450E+03 E0= -.87261450E+03  d E =-.111450E-04
 BRION: g(F)=  0.171E-04 g(S)=  0.000E+00 retain N=  4 mean eig= 2.02
 eig:   6.927  0.487  0.329  0.329
 bond charge predicted
       N       E                     dE             d eps       ncg     rms          rms(c)
DAV:   1    -0.872614515499E+03   -0.16868E-04   -0.72219E-04   704   0.438E-02    0.981E-03
DAV:   2    -0.872614516201E+03   -0.70204E-06   -0.10352E-05   768   0.551E-03    0.559E-03
DAV:   3    -0.872614516040E+03    0.16109E-06   -0.33274E-07   480   0.141E-03
 240 F= -.87261452E+03 E0= -.87261452E+03  d E =-.169441E-04
 BRION: g(F)=  0.153E-04 g(S)=  0.000E+00 retain N=  4 mean eig= 1.89
 eig:   6.578  0.552  0.219  0.219
 bond charge predicted
       N       E                     dE             d eps       ncg     rms          rms(c)
DAV:   1    -0.872614495120E+03    0.21081E-04   -0.11448E-03   704   0.533E-02    0.988E-03
DAV:   2    -0.872614496170E+03   -0.10501E-05   -0.14689E-05   792   0.639E-03    0.573E-03
DAV:   3    -0.872614495946E+03    0.22408E-06   -0.42482E-07   464   0.142E-03
 241 F= -.87261450E+03 E0= -.87261450E+03  d E =0.200941E-04
 BRION: g(F)=  0.144E-04 g(S)=  0.000E+00 retain N=  3 mean eig= 2.30
 eig:   6.305  0.304  0.304
 bond charge predicted
       N       E                     dE             d eps       ncg     rms          rms(c)
DAV:   1    -0.872614512562E+03   -0.16392E-04   -0.12461E-03   704   0.572E-02    0.114E-02
DAV:   2    -0.872614514011E+03   -0.14484E-05   -0.19471E-05   800   0.747E-03    0.595E-03
DAV:   3    -0.872614513687E+03    0.32395E-06   -0.51192E-07   504   0.170E-03
 242 F= -.87261451E+03 E0= -.87261451E+03  d E =-.177404E-04
 BRION: g(F)=  0.237E-04 g(S)=  0.000E+00 retain N=  4 mean eig= 1.80
 eig:   6.342  0.278  0.278  0.292
 bond charge predicted
       N       E                     dE             d eps       ncg     rms          rms(c)
DAV:   1    -0.872614517533E+03   -0.35229E-05   -0.16327E-04   704   0.234E-02    0.626E-03
DAV:   2    -0.872614517819E+03   -0.28562E-06   -0.49059E-06   688   0.386E-03
 243 F= -.87261452E+03 E0= -.87261452E+03  d E =-.413244E-05
 BRION: g(F)=  0.124E-04 g(S)=  0.000E+00 retain N=  1 mean eig= 0.27
 eig:   0.273
 bond charge predicted
       N       E                     dE             d eps       ncg     rms          rms(c)
DAV:   1    -0.872614529283E+03   -0.11749E-04   -0.48562E-04   704   0.354E-02    0.717E-03
DAV:   2    -0.872614529707E+03   -0.42451E-06   -0.65961E-06   736   0.446E-03
 244 F= -.87261453E+03 E0= -.87261453E+03  d E =-.118884E-04
 BRION: g(F)=  0.139E-04 g(S)=  0.000E+00 retain N=  2 mean eig= 0.29
 eig:   0.292  0.292
 bond charge predicted
       N       E                     dE             d eps       ncg     rms          rms(c)
DAV:   1    -0.872614533876E+03   -0.45930E-05   -0.84651E-05   704   0.173E-02    0.498E-03
DAV:   2    -0.872614533997E+03   -0.12147E-06   -0.20946E-06   560   0.270E-03
 245 F= -.87261453E+03 E0= -.87261453E+03  d E =-.429000E-05
 BRION: g(F)=  0.122E-04 g(S)=  0.000E+00 retain N=  1 mean eig= 0.27
 eig:   0.269
 bond charge predicted
       N       E                     dE             d eps       ncg     rms          rms(c)
DAV:   1    -0.872614544547E+03   -0.10671E-04   -0.36110E-04   704   0.301E-02    0.634E-03
DAV:   2    -0.872614544809E+03   -0.26185E-06   -0.42291E-06   656   0.345E-03
 246 F= -.87261454E+03 E0= -.87261454E+03  d E =-.108117E-04
 BRION: g(F)=  0.120E-04 g(S)=  0.000E+00 retain N=  2 mean eig= 0.41
 eig:   0.175  0.637
 bond charge predicted
       N       E                     dE             d eps       ncg     rms          rms(c)
DAV:   1    -0.872614552217E+03   -0.76695E-05   -0.15708E-04   696   0.210E-02    0.545E-03
DAV:   2    -0.872614552348E+03   -0.13129E-06   -0.23165E-06   560   0.278E-03
 247 F= -.87261455E+03 E0= -.87261455E+03  d E =-.753890E-05
 BRION: g(F)=  0.128E-04 g(S)=  0.000E+00 retain N=  3 mean eig= 2.23
 eig:   6.088  0.434  0.157
 bond charge predicted
       N       E                     dE             d eps       ncg     rms          rms(c)
DAV:   1    -0.872614581162E+03   -0.28945E-04   -0.25970E-03   704   0.790E-02    0.151E-02
DAV:   2    -0.872614583309E+03   -0.21466E-05   -0.29935E-05   800   0.881E-03    0.927E-03
DAV:   3    -0.872614582882E+03    0.42682E-06   -0.10437E-06   560   0.203E-03
 248 F= -.87261458E+03 E0= -.87261458E+03  d E =-.305338E-04
 BRION: g(F)=  0.135E-04 g(S)=  0.000E+00 retain N=  2 mean eig= 0.32
 eig:   0.321  0.324
 bond charge predicted
       N       E                     dE             d eps       ncg     rms          rms(c)
DAV:   1    -0.872614561069E+03    0.22240E-04   -0.12637E-03   704   0.564E-02    0.103E-02
DAV:   2    -0.872614562238E+03   -0.11688E-05   -0.16483E-05   792   0.679E-03    0.606E-03
DAV:   3    -0.872614561951E+03    0.28666E-06   -0.46739E-07   488   0.164E-03
 249 F= -.87261456E+03 E0= -.87261456E+03  d E =0.209305E-04
 BRION: g(F)=  0.140E-04 g(S)=  0.000E+00 retain N=  3 mean eig= 0.68
 eig:   1.197  0.332  0.525
 bond charge predicted
       N       E                     dE             d eps       ncg     rms          rms(c)
DAV:   1    -0.872614562739E+03   -0.50142E-06   -0.10584E-05   664   0.629E-03    0.155E-03
DAV:   2    -0.872614562753E+03   -0.13919E-07   -0.38589E-07   352   0.125E-03
 250 F= -.87261456E+03 E0= -.87261456E+03  d E =-.802000E-06
 BRION: g(F)=  0.128E-04 g(S)=  0.000E+00 retain N=  2 mean eig= 0.75
 eig:   0.286  1.205
 bond charge predicted
       N       E                     dE             d eps       ncg     rms          rms(c)
DAV:   1    -0.872614579190E+03   -0.16451E-04   -0.91296E-04   704   0.480E-02    0.876E-03
DAV:   2    -0.872614579994E+03   -0.80394E-06   -0.11349E-05   800   0.564E-03    0.507E-03
DAV:   3    -0.872614579806E+03    0.18833E-06   -0.34005E-07   464   0.136E-03
 251 F= -.87261458E+03 E0= -.87261458E+03  d E =-.170525E-04
 BRION: g(F)=  0.134E-04 g(S)=  0.000E+00 retain N=  3 mean eig= 0.59
 eig:   1.249  0.254  0.254
 bond charge predicted
       N       E                     dE             d eps       ncg     rms          rms(c)
DAV:   1    -0.872614585420E+03   -0.54256E-05   -0.82159E-05   664   0.156E-02    0.339E-03
DAV:   2    -0.872614585496E+03   -0.75997E-07   -0.13447E-06   416   0.217E-03
 252 F= -.87261459E+03 E0= -.87261459E+03  d E =-.568988E-05
 BRION: g(F)=  0.119E-04 g(S)=  0.000E+00 retain N=  2 mean eig= 0.82
 eig:   0.817  0.817
 bond charge predicted
       N       E                     dE             d eps       ncg     rms          rms(c)
DAV:   1    -0.872614597999E+03   -0.12580E-04   -0.56613E-04   704   0.373E-02    0.741E-03
DAV:   2    -0.872614598470E+03   -0.47085E-06   -0.68153E-06   728   0.434E-03
 253 F= -.87261460E+03 E0= -.87261460E+03  d E =-.129744E-04
 BRION: g(F)=  0.126E-04 g(S)=  0.000E+00 retain N=  2 mean eig= 0.28
 eig:   0.284  0.284
 bond charge predicted
       N       E                     dE             d eps       ncg     rms          rms(c)
DAV:   1    -0.872614603583E+03   -0.55843E-05   -0.97059E-05   688   0.180E-02    0.538E-03
DAV:   2    -0.872614603668E+03   -0.84568E-07   -0.18542E-06   544   0.258E-03
 254 F= -.87261460E+03 E0= -.87261460E+03  d E =-.519801E-05
 BRION: g(F)=  0.119E-04 g(S)=  0.000E+00 retain N=  1 mean eig= 0.28
 eig:   0.280
 bond charge predicted
       N       E                     dE             d eps       ncg     rms          rms(c)
DAV:   1    -0.872614613221E+03   -0.96379E-05   -0.26804E-04   704   0.263E-02    0.605E-03
DAV:   2    -0.872614613430E+03   -0.20891E-06   -0.34325E-06   600   0.323E-03
 255 F= -.87261461E+03 E0= -.87261461E+03  d E =-.976223E-05
 BRION: g(F)=  0.124E-04 g(S)=  0.000E+00 retain N=  2 mean eig= 0.34
 eig:   0.199  0.482
 bond charge predicted
       N       E                     dE             d eps       ncg     rms          rms(c)
DAV:   1    -0.872614617121E+03   -0.39001E-05   -0.71292E-05   680   0.149E-02    0.391E-03
DAV:   2    -0.872614617190E+03   -0.68634E-07   -0.12840E-06   440   0.216E-03
 256 F= -.87261462E+03 E0= -.87261462E+03  d E =-.375986E-05
 BRION: g(F)=  0.121E-04 g(S)=  0.000E+00 retain N=  1 mean eig= 0.21
 eig:   0.212
 bond charge predicted
       N       E                     dE             d eps       ncg     rms          rms(c)
DAV:   1    -0.872614626915E+03   -0.97934E-05   -0.36206E-04   704   0.300E-02    0.630E-03
DAV:   2    -0.872614627202E+03   -0.28731E-06   -0.43799E-06   664   0.356E-03
 257 F= -.87261463E+03 E0= -.87261463E+03  d E =-.100120E-04
 BRION: g(F)=  0.128E-04 g(S)=  0.000E+00 retain N=  2 mean eig= 0.22
 eig:   0.119  0.317
 bond charge predicted
       N       E                     dE             d eps       ncg     rms          rms(c)
DAV:   1    -0.872614630907E+03   -0.39922E-05   -0.53071E-05   672   0.134E-02    0.394E-03
DAV:   2    -0.872614630974E+03   -0.66982E-07   -0.12056E-06   432   0.206E-03
 258 F= -.87261463E+03 E0= -.87261463E+03  d E =-.377192E-05
 BRION: g(F)=  0.121E-04 g(S)=  0.000E+00 retain N=  1 mean eig= 0.27
 eig:   0.271
 bond charge predicted
       N       E                     dE             d eps       ncg     rms          rms(c)
DAV:   1    -0.872614640641E+03   -0.97340E-05   -0.33171E-04   704   0.301E-02    0.667E-03
DAV:   2    -0.872614640947E+03   -0.30595E-06   -0.47622E-06   672   0.389E-03
 259 F= -.87261464E+03 E0= -.87261464E+03  d E =-.997293E-05
 BRION: g(F)=  0.132E-04 g(S)=  0.000E+00 retain N=  2 mean eig= 0.31
 eig:   0.309  0.309
 reached required accuracy - stopping structural energy minimisation
Running "mpirun -np 48 vasp_neb"
