 running on   48 total cores
 distrk:  each k-point on   48 cores,    1 groups
 distr:  one band on    6 cores,    8 groups
 using from now: INCAR     
 vasp.5.4.1 05Feb16 (build Feb 08 2018 09:21:51) complex                        
  
 POSCAR found :  5 types and     112 ions
 LDA part: xc-table for Pade appr. of Perdew
 POSCAR, INCAR and KPOINTS ok, starting setup
 WARNING: small aliasing (wrap around) errors must be expected
 FFT: planning ...
 WAVECAR not read
 entering main loop
       N       E                     dE             d eps       ncg     rms          rms(c)
DAV:   1     0.446927055768E+04    0.44693E+04   -0.24449E+05   752   0.116E+03
DAV:   2    -0.406689552287E+03   -0.48760E+04   -0.47732E+04   864   0.326E+02
DAV:   3    -0.975758603438E+03   -0.56907E+03   -0.56688E+03   816   0.120E+02
DAV:   4    -0.989220390782E+03   -0.13462E+02   -0.13421E+02   824   0.199E+01
DAV:   5    -0.989644124917E+03   -0.42373E+00   -0.42321E+00   824   0.319E+00    0.856E+01
DAV:   6    -0.873685830985E+03    0.11596E+03   -0.50677E+02   800   0.353E+01    0.397E+01
DAV:   7    -0.873171244876E+03    0.51459E+00   -0.16407E+01   920   0.602E+00    0.151E+01
DAV:   8    -0.872687600364E+03    0.48364E+00   -0.11636E+00   816   0.232E+00    0.601E+00
DAV:   9    -0.872543948298E+03    0.14365E+00   -0.44807E-01   832   0.144E+00    0.102E+00
DAV:  10    -0.872543709205E+03    0.23909E-03   -0.87414E-02   808   0.627E-01    0.681E-01
DAV:  11    -0.872544168097E+03   -0.45889E-03   -0.20825E-02   784   0.300E-01    0.301E-01
DAV:  12    -0.872550662016E+03   -0.64939E-02   -0.73779E-03   792   0.215E-01    0.150E-01
DAV:  13    -0.872562246876E+03   -0.11585E-01   -0.43732E-03   800   0.182E-01    0.178E-01
DAV:  14    -0.872571977904E+03   -0.97310E-02   -0.25019E-03   800   0.119E-01    0.562E-02
DAV:  15    -0.872573975874E+03   -0.19980E-02   -0.45958E-04   824   0.499E-02    0.550E-02
DAV:  16    -0.872574502789E+03   -0.52691E-03   -0.14207E-04   832   0.267E-02    0.387E-02
DAV:  17    -0.872574794943E+03   -0.29215E-03   -0.83907E-05   792   0.176E-02    0.181E-02
DAV:  18    -0.872575170315E+03   -0.37537E-03   -0.29907E-05   800   0.102E-02    0.992E-03
DAV:  19    -0.872575209384E+03   -0.39069E-04   -0.10092E-05   752   0.737E-03    0.831E-03
DAV:  20    -0.872575221529E+03   -0.12145E-04   -0.35159E-06   656   0.398E-03    0.451E-03
DAV:  21    -0.872575242004E+03   -0.20475E-04   -0.19516E-06   584   0.245E-03    0.190E-03
DAV:  22    -0.872575247081E+03   -0.50771E-05   -0.13329E-06   536   0.227E-03    0.141E-03
DAV:  23    -0.872575247524E+03   -0.44346E-06   -0.20793E-07   536   0.940E-04
   1 F= -.87257525E+03 E0= -.87257525E+03  d E =-.872575E+03
 BRION: g(F)=  0.220E-02 g(S)=  0.000E+00
 bond charge predicted
       N       E                     dE             d eps       ncg     rms          rms(c)
DAV:   1    -0.872575502438E+03   -0.25536E-03   -0.38349E-01   728   0.125E+00    0.219E-01
DAV:   2    -0.872576222587E+03   -0.72015E-03   -0.92458E-03   832   0.179E-01    0.788E-02
DAV:   3    -0.872576094093E+03    0.12849E-03   -0.23327E-04   824   0.401E-02    0.463E-02
DAV:   4    -0.872576037023E+03    0.57070E-04   -0.27341E-04   808   0.440E-02    0.164E-02
DAV:   5    -0.872576035965E+03    0.10582E-05   -0.70015E-05   824   0.198E-02    0.178E-02
DAV:   6    -0.872576033070E+03    0.28955E-05   -0.15323E-05   808   0.913E-03    0.107E-02
DAV:   7    -0.872576030226E+03    0.28436E-05   -0.11758E-06   528   0.788E-03    0.541E-03
DAV:   8    -0.872576029228E+03    0.99822E-06   -0.45625E-06   656   0.964E-03
   2 F= -.87257603E+03 E0= -.87257603E+03  d E =-.781703E-03
 BRION: g(F)=  0.501E-02 g(S)=  0.000E+00 retain N=  1 mean eig= 0.34
 eig:   0.336
 bond charge predicted
       N       E                     dE             d eps       ncg     rms          rms(c)
DAV:   1    -0.872576633280E+03   -0.60305E-03   -0.11063E-01   720   0.660E-01    0.157E-01
DAV:   2    -0.872576811678E+03   -0.17840E-03   -0.31739E-03   824   0.109E-01    0.497E-02
DAV:   3    -0.872576727313E+03    0.84365E-04   -0.13099E-04   816   0.362E-02    0.269E-02
DAV:   4    -0.872576689148E+03    0.38165E-04   -0.95461E-05   808   0.336E-02    0.864E-03
DAV:   5    -0.872576687907E+03    0.12406E-05   -0.53211E-05   824   0.181E-02    0.164E-02
DAV:   6    -0.872576685139E+03    0.27683E-05   -0.44034E-06   720   0.584E-03    0.108E-02
DAV:   7    -0.872576682042E+03    0.30971E-05   -0.88720E-07   512   0.627E-03    0.625E-03
DAV:   8    -0.872576680442E+03    0.15999E-05   -0.45904E-06   712   0.100E-02    0.207E-03
DAV:   9    -0.872576680961E+03   -0.51910E-06   -0.26352E-06   552   0.411E-03
   3 F= -.87257668E+03 E0= -.87257668E+03  d E =-.651733E-03
 BRION: g(F)=  0.179E-02 g(S)=  0.000E+00 retain N=  2 mean eig= 3.13
 eig:   0.221  6.033
 bond charge predicted
       N       E                     dE             d eps       ncg     rms          rms(c)
DAV:   1    -0.872577109284E+03   -0.42884E-03   -0.97482E-02   720   0.623E-01    0.874E-02
DAV:   2    -0.872577293352E+03   -0.18407E-03   -0.22805E-03   808   0.890E-02    0.336E-02
DAV:   3    -0.872577268352E+03    0.25000E-04   -0.56518E-05   816   0.204E-02    0.199E-02
DAV:   4    -0.872577253482E+03    0.14870E-04   -0.49724E-05   808   0.228E-02    0.686E-03
DAV:   5    -0.872577253711E+03   -0.22886E-06   -0.22115E-05   824   0.108E-02    0.953E-03
DAV:   6    -0.872577253193E+03    0.51743E-06   -0.21744E-06   560   0.324E-03
   4 F= -.87257725E+03 E0= -.87257725E+03  d E =-.572232E-03
 BRION: g(F)=  0.913E-03 g(S)=  0.000E+00 retain N=  2 mean eig= 1.20
 eig:   0.189  2.205
 bond charge predicted
       N       E                     dE             d eps       ncg     rms          rms(c)
DAV:   1    -0.872577543620E+03   -0.28991E-03   -0.52486E-02   720   0.455E-01    0.543E-02
DAV:   2    -0.872577649453E+03   -0.10583E-03   -0.12253E-03   808   0.637E-02    0.239E-02
DAV:   3    -0.872577640968E+03    0.84848E-05   -0.23800E-05   824   0.116E-02    0.146E-02
DAV:   4    -0.872577636859E+03    0.41090E-05   -0.29423E-05   800   0.147E-02    0.543E-03
DAV:   5    -0.872577636993E+03   -0.13407E-06   -0.72472E-06   800   0.587E-03
   5 F= -.87257764E+03 E0= -.87257764E+03  d E =-.383800E-03
 BRION: g(F)=  0.701E-03 g(S)=  0.000E+00 retain N=  2 mean eig= 0.49
 eig:   0.191  0.793
 bond charge predicted
       N       E                     dE             d eps       ncg     rms          rms(c)
DAV:   1    -0.872577935292E+03   -0.29843E-03   -0.86414E-02   704   0.583E-01    0.586E-02
DAV:   2    -0.872578099678E+03   -0.16439E-03   -0.18704E-03   792   0.779E-02    0.267E-02
DAV:   3    -0.872578090579E+03    0.90996E-05   -0.35844E-05   824   0.129E-02    0.169E-02
DAV:   4    -0.872578084953E+03    0.56255E-05   -0.35797E-05   800   0.163E-02    0.626E-03
DAV:   5    -0.872578085263E+03   -0.30988E-06   -0.86061E-06   808   0.612E-03
   6 F= -.87257809E+03 E0= -.87257809E+03  d E =-.448270E-03
 BRION: g(F)=  0.618E-03 g(S)=  0.000E+00 retain N=  3 mean eig= 1.66
 eig:   4.699  0.228  0.056
 bond charge predicted
       N       E                     dE             d eps       ncg     rms          rms(c)
DAV:   1    -0.872578386841E+03   -0.30189E-03   -0.12894E-01   704   0.711E-01    0.634E-02
DAV:   2    -0.872578632059E+03   -0.24522E-03   -0.27577E-03   792   0.944E-02    0.322E-02
DAV:   3    -0.872578621206E+03    0.10853E-04   -0.51393E-05   832   0.151E-02    0.209E-02
DAV:   4    -0.872578613620E+03    0.75861E-05   -0.51824E-05   808   0.192E-02    0.797E-03
DAV:   5    -0.872578613984E+03   -0.36365E-06   -0.12043E-05   808   0.728E-03    0.774E-03
DAV:   6    -0.872578613502E+03    0.48132E-06   -0.31177E-06   648   0.396E-03
   7 F= -.87257861E+03 E0= -.87257861E+03  d E =-.528239E-03
 BRION: g(F)=  0.607E-03 g(S)=  0.000E+00 retain N=  3 mean eig= 1.29
 eig:   3.052  0.377  0.450
 bond charge predicted
       N       E                     dE             d eps       ncg     rms          rms(c)
DAV:   1    -0.872578836459E+03   -0.22248E-03   -0.80950E-02   704   0.565E-01    0.667E-02
DAV:   2    -0.872578994961E+03   -0.15850E-03   -0.18459E-03   800   0.784E-02    0.280E-02
DAV:   3    -0.872578981562E+03    0.13399E-04   -0.36539E-05   824   0.149E-02    0.172E-02
DAV:   4    -0.872578973823E+03    0.77387E-05   -0.42998E-05   808   0.189E-02    0.655E-03
DAV:   5    -0.872578974098E+03   -0.27538E-06   -0.12859E-05   816   0.775E-03    0.737E-03
DAV:   6    -0.872578973764E+03    0.33416E-06   -0.12646E-06   488   0.247E-03
   8 F= -.87257897E+03 E0= -.87257897E+03  d E =-.360262E-03
 BRION: g(F)=  0.877E-03 g(S)=  0.000E+00 retain N=  3 mean eig= 0.97
 eig:   2.623  0.189  0.086
 bond charge predicted
       N       E                     dE             d eps       ncg     rms          rms(c)
DAV:   1    -0.872579222941E+03   -0.24884E-03   -0.75552E-02   704   0.546E-01    0.671E-02
DAV:   2    -0.872579369102E+03   -0.14616E-03   -0.17231E-03   800   0.761E-02    0.274E-02
DAV:   3    -0.872579354894E+03    0.14207E-04   -0.35189E-05   832   0.153E-02    0.166E-02
DAV:   4    -0.872579346772E+03    0.81224E-05   -0.40194E-05   800   0.192E-02    0.618E-03
DAV:   5    -0.872579347168E+03   -0.39559E-06   -0.13983E-05   824   0.805E-03    0.754E-03
DAV:   6    -0.872579346866E+03    0.30200E-06   -0.11669E-06   488   0.235E-03
   9 F= -.87257935E+03 E0= -.87257935E+03  d E =-.373101E-03
 BRION: g(F)=  0.679E-03 g(S)=  0.000E+00 retain N=  3 mean eig= 2.02
 eig:   5.729  0.296  0.021
 bond charge predicted
       N       E                     dE             d eps       ncg     rms          rms(c)
DAV:   1    -0.872579423830E+03   -0.76663E-04   -0.10303E-02   704   0.202E-01    0.426E-02
DAV:   2    -0.872579444837E+03   -0.21007E-04   -0.29348E-04   824   0.319E-02    0.140E-02
DAV:   3    -0.872579439355E+03    0.54826E-05   -0.80262E-06   816   0.832E-03    0.756E-03
DAV:   4    -0.872579437234E+03    0.21206E-05   -0.82260E-06   792   0.868E-03    0.214E-03
DAV:   5    -0.872579437368E+03   -0.13396E-06   -0.31700E-06   664   0.396E-03
  10 F= -.87257944E+03 E0= -.87257944E+03  d E =-.905022E-04
 BRION: g(F)=  0.577E-03 g(S)=  0.000E+00 retain N=  3 mean eig= 2.26
 eig:   6.336  0.219  0.219
 bond charge predicted
       N       E                     dE             d eps       ncg     rms          rms(c)
DAV:   1    -0.872579560352E+03   -0.12312E-03   -0.10147E-02   704   0.200E-01    0.273E-02
DAV:   2    -0.872579580677E+03   -0.20325E-04   -0.24341E-04   808   0.287E-02    0.112E-02
DAV:   3    -0.872579578537E+03    0.21401E-05   -0.52843E-06   752   0.539E-03    0.660E-03
DAV:   4    -0.872579577580E+03    0.95613E-06   -0.54525E-06   744   0.600E-03
  11 F= -.87257958E+03 E0= -.87257958E+03  d E =-.140213E-03
 BRION: g(F)=  0.408E-03 g(S)=  0.000E+00 retain N=  3 mean eig= 1.39
 eig:   3.757  0.357  0.050
 bond charge predicted
       N       E                     dE             d eps       ncg     rms          rms(c)
DAV:   1    -0.872579802396E+03   -0.22386E-03   -0.83286E-02   704   0.571E-01    0.513E-02
DAV:   2    -0.872579959587E+03   -0.15719E-03   -0.17612E-03   784   0.754E-02    0.254E-02
DAV:   3    -0.872579952165E+03    0.74213E-05   -0.31599E-05   816   0.121E-02    0.165E-02
DAV:   4    -0.872579946965E+03    0.52002E-05   -0.34632E-05   808   0.164E-02    0.629E-03
DAV:   5    -0.872579947307E+03   -0.34225E-06   -0.88906E-06   792   0.614E-03
  12 F= -.87257995E+03 E0= -.87257995E+03  d E =-.369727E-03
 BRION: g(F)=  0.464E-03 g(S)=  0.000E+00 retain N=  3 mean eig= 1.81
 eig:   5.041  0.196  0.196
 bond charge predicted
       N       E                     dE             d eps       ncg     rms          rms(c)
DAV:   1    -0.872580099327E+03   -0.15236E-03   -0.24522E-02   704   0.311E-01    0.343E-02
DAV:   2    -0.872580146335E+03   -0.47008E-04   -0.55013E-04   792   0.428E-02    0.144E-02
DAV:   3    -0.872580143618E+03    0.27175E-05   -0.11925E-05   832   0.767E-03    0.900E-03
DAV:   4    -0.872580141998E+03    0.16198E-05   -0.10103E-05   768   0.871E-03    0.346E-03
DAV:   5    -0.872580142049E+03   -0.51572E-07   -0.23461E-06   592   0.347E-03
  13 F= -.87258014E+03 E0= -.87258014E+03  d E =-.194742E-03
 BRION: g(F)=  0.436E-03 g(S)=  0.000E+00 retain N=  3 mean eig= 1.75
 eig:   4.985  0.228  0.050
 bond charge predicted
       N       E                     dE             d eps       ncg     rms          rms(c)
DAV:   1    -0.872580313175E+03   -0.17118E-03   -0.33380E-02   704   0.362E-01    0.367E-02
DAV:   2    -0.872580376361E+03   -0.63187E-04   -0.72546E-04   792   0.489E-02    0.167E-02
DAV:   3    -0.872580372522E+03    0.38396E-05   -0.14171E-05   832   0.863E-03    0.106E-02
DAV:   4    -0.872580370018E+03    0.25041E-05   -0.14505E-05   768   0.109E-02    0.404E-03
DAV:   5    -0.872580370113E+03   -0.95599E-07   -0.40375E-06   672   0.447E-03
  14 F= -.87258037E+03 E0= -.87258037E+03  d E =-.228064E-03
 BRION: g(F)=  0.441E-03 g(S)=  0.000E+00 retain N=  3 mean eig= 1.81
 eig:   4.980  0.308  0.145
 bond charge predicted
       N       E                     dE             d eps       ncg     rms          rms(c)
DAV:   1    -0.872580355706E+03    0.14311E-04   -0.25241E-03   704   0.991E-02    0.241E-02
DAV:   2    -0.872580360019E+03   -0.43129E-05   -0.75413E-05   824   0.166E-02    0.785E-03
DAV:   3    -0.872580358079E+03    0.19408E-05   -0.27481E-06   592   0.522E-03    0.412E-03
DAV:   4    -0.872580357301E+03    0.77798E-06   -0.26572E-06   632   0.511E-03
  15 F= -.87258036E+03 E0= -.87258036E+03  d E =0.128127E-04
 BRION: g(F)=  0.411E-03 g(S)=  0.000E+00 retain N=  3 mean eig= 1.88
 eig:   5.141  0.243  0.243
 bond charge predicted
       N       E                     dE             d eps       ncg     rms          rms(c)
DAV:   1    -0.872580575941E+03   -0.21786E-03   -0.10453E-01   704   0.640E-01    0.516E-02
DAV:   2    -0.872580772497E+03   -0.19656E-03   -0.21708E-03   776   0.834E-02    0.279E-02
DAV:   3    -0.872580764640E+03    0.78571E-05   -0.37247E-05   816   0.125E-02    0.184E-02
DAV:   4    -0.872580758591E+03    0.60488E-05   -0.40659E-05   808   0.174E-02    0.694E-03
DAV:   5    -0.872580759017E+03   -0.42540E-06   -0.99847E-06   768   0.639E-03
  16 F= -.87258076E+03 E0= -.87258076E+03  d E =-.401716E-03
 BRION: g(F)=  0.360E-03 g(S)=  0.000E+00 retain N=  3 mean eig= 1.37
 eig:   3.509  0.079  0.508
 bond charge predicted
       N       E                     dE             d eps       ncg     rms          rms(c)
DAV:   1    -0.872580902124E+03   -0.14353E-03   -0.33274E-02   704   0.362E-01    0.391E-02
DAV:   2    -0.872580965835E+03   -0.63711E-04   -0.73935E-04   792   0.496E-02    0.165E-02
DAV:   3    -0.872580962220E+03    0.36146E-05   -0.15479E-05   824   0.869E-03    0.103E-02
DAV:   4    -0.872580960031E+03    0.21896E-05   -0.13112E-05   776   0.993E-03    0.392E-03
DAV:   5    -0.872580960098E+03   -0.67615E-07   -0.31633E-06   600   0.403E-03
  17 F= -.87258096E+03 E0= -.87258096E+03  d E =-.201081E-03
 BRION: g(F)=  0.445E-03 g(S)=  0.000E+00 retain N=  3 mean eig= 0.70
 eig:   1.893  0.107  0.107
 bond charge predicted
       N       E                     dE             d eps       ncg     rms          rms(c)
DAV:   1    -0.872581140169E+03   -0.18014E-03   -0.17407E-01   704   0.826E-01    0.720E-02
DAV:   2    -0.872581468614E+03   -0.32845E-03   -0.36628E-03   784   0.109E-01    0.362E-02
DAV:   3    -0.872581453766E+03    0.14849E-04   -0.63490E-05   824   0.171E-02    0.235E-02
DAV:   4    -0.872581443058E+03    0.10707E-04   -0.72552E-05   808   0.238E-02    0.912E-03
DAV:   5    -0.872581443772E+03   -0.71370E-06   -0.18956E-05   816   0.895E-03    0.955E-03
DAV:   6    -0.872581443076E+03    0.69600E-06   -0.31636E-06   624   0.386E-03
  18 F= -.87258144E+03 E0= -.87258144E+03  d E =-.482978E-03
 BRION: g(F)=  0.443E-03 g(S)=  0.000E+00 retain N=  3 mean eig= 1.43
 eig:   3.458  0.494  0.347
 bond charge predicted
       N       E                     dE             d eps       ncg     rms          rms(c)
DAV:   1    -0.872581612631E+03   -0.16886E-03   -0.13787E-01   704   0.736E-01    0.675E-02
DAV:   2    -0.872581876762E+03   -0.26413E-03   -0.29571E-03   784   0.981E-02    0.333E-02
DAV:   3    -0.872581863106E+03    0.13656E-04   -0.52189E-05   824   0.160E-02    0.214E-02
DAV:   4    -0.872581854099E+03    0.90067E-05   -0.63414E-05   808   0.221E-02    0.851E-03
DAV:   5    -0.872581854489E+03   -0.38977E-06   -0.16429E-05   808   0.863E-03    0.874E-03
DAV:   6    -0.872581853923E+03    0.56597E-06   -0.26170E-06   552   0.354E-03
  19 F= -.87258185E+03 E0= -.87258185E+03  d E =-.410847E-03
 BRION: g(F)=  0.464E-03 g(S)=  0.000E+00 retain N=  3 mean eig= 2.55
 eig:   7.250  0.288  0.101
 bond charge predicted
       N       E                     dE             d eps       ncg     rms          rms(c)
DAV:   1    -0.872581321360E+03    0.53313E-03   -0.10541E-01   704   0.644E-01    0.628E-02
DAV:   2    -0.872581520441E+03   -0.19908E-03   -0.22385E-03   792   0.857E-02    0.291E-02
DAV:   3    -0.872581508916E+03    0.11525E-04   -0.40591E-05   824   0.142E-02    0.183E-02
DAV:   4    -0.872581501049E+03    0.78669E-05   -0.39871E-05   808   0.186E-02    0.619E-03
DAV:   5    -0.872581501613E+03   -0.56439E-06   -0.12832E-05   816   0.758E-03    0.704E-03
DAV:   6    -0.872581501298E+03    0.31567E-06   -0.12709E-06   480   0.250E-03
  20 F= -.87258150E+03 E0= -.87258150E+03  d E =0.352625E-03
 BRION: g(F)=  0.453E-03 g(S)=  0.000E+00 retain N=  3 mean eig= 1.52
 eig:   0.406  0.406  3.763
 bond charge predicted
       N       E                     dE             d eps       ncg     rms          rms(c)
DAV:   1    -0.872581701810E+03   -0.20020E-03   -0.10711E-01   704   0.648E-01    0.514E-02
DAV:   2    -0.872581901388E+03   -0.19958E-03   -0.21976E-03   776   0.840E-02    0.279E-02
DAV:   3    -0.872581893729E+03    0.76595E-05   -0.37317E-05   816   0.123E-02    0.184E-02
DAV:   4    -0.872581887550E+03    0.61786E-05   -0.37612E-05   808   0.168E-02    0.656E-03
DAV:   5    -0.872581888037E+03   -0.48672E-06   -0.98048E-06   760   0.632E-03
  21 F= -.87258189E+03 E0= -.87258189E+03  d E =-.386739E-03
 BRION: g(F)=  0.310E-03 g(S)=  0.000E+00 retain N=  3 mean eig= 2.02
 eig:   5.553  0.022  0.491
 bond charge predicted
       N       E                     dE             d eps       ncg     rms          rms(c)
DAV:   1    -0.872582013987E+03   -0.12644E-03   -0.22604E-02   704   0.298E-01    0.277E-02
DAV:   2    -0.872582057155E+03   -0.43168E-04   -0.48927E-04   784   0.399E-02    0.127E-02
DAV:   3    -0.872582055542E+03    0.16130E-05   -0.91852E-06   792   0.651E-03    0.826E-03
DAV:   4    -0.872582054379E+03    0.11625E-05   -0.87867E-06   752   0.834E-03    0.335E-03
DAV:   5    -0.872582054468E+03   -0.88527E-07   -0.21165E-06   560   0.308E-03
  22 F= -.87258205E+03 E0= -.87258205E+03  d E =-.166431E-03
 BRION: g(F)=  0.288E-03 g(S)=  0.000E+00 retain N=  3 mean eig= 1.58
 eig:   4.026  0.362  0.362
 bond charge predicted
       N       E                     dE             d eps       ncg     rms          rms(c)
DAV:   1    -0.872582214933E+03   -0.16055E-03   -0.12937E-01   704   0.713E-01    0.582E-02
DAV:   2    -0.872582458740E+03   -0.24381E-03   -0.27008E-03   776   0.934E-02    0.309E-02
DAV:   3    -0.872582449377E+03    0.93633E-05   -0.47183E-05   824   0.142E-02    0.203E-02
DAV:   4    -0.872582442383E+03    0.69934E-05   -0.51033E-05   808   0.193E-02    0.793E-03
DAV:   5    -0.872582442860E+03   -0.47711E-06   -0.12182E-05   784   0.715E-03    0.801E-03
DAV:   6    -0.872582442339E+03    0.52151E-06   -0.29288E-06   584   0.384E-03
  23 F= -.87258244E+03 E0= -.87258244E+03  d E =-.387871E-03
 BRION: g(F)=  0.307E-03 g(S)=  0.000E+00 retain N=  3 mean eig= 1.01
 eig:   1.237  1.237  0.547
 bond charge predicted
       N       E                     dE             d eps       ncg     rms          rms(c)
DAV:   1    -0.872582515412E+03   -0.72552E-04   -0.25618E-01   704   0.100E+00    0.816E-02
DAV:   2    -0.872583000509E+03   -0.48510E-03   -0.53501E-03   776   0.131E-01    0.438E-02
DAV:   3    -0.872582980513E+03    0.19996E-04   -0.88980E-05   816   0.198E-02    0.288E-02
DAV:   4    -0.872582965984E+03    0.14529E-04   -0.10806E-04   824   0.285E-02    0.113E-02
DAV:   5    -0.872582966928E+03   -0.94403E-06   -0.26824E-05   792   0.107E-02    0.117E-02
DAV:   6    -0.872582965878E+03    0.10506E-05   -0.55849E-06   752   0.509E-03    0.668E-03
DAV:   7    -0.872582965258E+03    0.62026E-06   -0.28365E-06   576   0.428E-03
  24 F= -.87258297E+03 E0= -.87258297E+03  d E =-.522919E-03
 BRION: g(F)=  0.426E-03 g(S)=  0.000E+00 retain N=  2 mean eig= 1.13
 eig:   0.354  1.905
 bond charge predicted
       N       E                     dE             d eps       ncg     rms          rms(c)
DAV:   1    -0.872582126673E+03    0.83920E-03   -0.21052E-01   704   0.910E-01    0.783E-02
DAV:   2    -0.872582521009E+03   -0.39434E-03   -0.43935E-03   776   0.120E-01    0.401E-02
DAV:   3    -0.872582503355E+03    0.17654E-04   -0.79427E-05   816   0.187E-02    0.259E-02
DAV:   4    -0.872582490367E+03    0.12988E-04   -0.78364E-05   808   0.244E-02    0.953E-03
DAV:   5    -0.872582491176E+03   -0.80939E-06   -0.20537E-05   800   0.955E-03    0.981E-03
DAV:   6    -0.872582490451E+03    0.72563E-06   -0.41120E-06   680   0.445E-03
  25 F= -.87258249E+03 E0= -.87258249E+03  d E =0.474807E-03
 BRION: g(F)=  0.404E-03 g(S)=  0.000E+00 retain N=  3 mean eig= 2.01
 eig:   5.333  0.353  0.353
 bond charge predicted
       N       E                     dE             d eps       ncg     rms          rms(c)
DAV:   1    -0.872582613281E+03   -0.12210E-03   -0.18334E-02   704   0.269E-01    0.264E-02
DAV:   2    -0.872582646817E+03   -0.33536E-04   -0.37798E-04   784   0.353E-02    0.121E-02
DAV:   3    -0.872582644824E+03    0.19927E-05   -0.73181E-06   792   0.571E-03    0.749E-03
DAV:   4    -0.872582643556E+03    0.12677E-05   -0.58844E-06   752   0.660E-03    0.229E-03
DAV:   5    -0.872582643628E+03   -0.72279E-07   -0.14988E-06   488   0.269E-03
  26 F= -.87258264E+03 E0= -.87258264E+03  d E =-.153178E-03
 BRION: g(F)=  0.272E-03 g(S)=  0.000E+00 retain N=  3 mean eig= 2.01
 eig:   5.305  0.228  0.507
 bond charge predicted
       N       E                     dE             d eps       ncg     rms          rms(c)
DAV:   1    -0.872582766661E+03   -0.12310E-03   -0.26379E-02   704   0.322E-01    0.287E-02
DAV:   2    -0.872582816413E+03   -0.49752E-04   -0.55737E-04   776   0.426E-02    0.142E-02
DAV:   3    -0.872582814182E+03    0.22314E-05   -0.99817E-06   808   0.675E-03    0.918E-03
DAV:   4    -0.872582812674E+03    0.15082E-05   -0.10656E-05   776   0.892E-03    0.352E-03
DAV:   5    -0.872582812750E+03   -0.76790E-07   -0.25087E-06   560   0.344E-03
  27 F= -.87258281E+03 E0= -.87258281E+03  d E =-.169122E-03
 BRION: g(F)=  0.274E-03 g(S)=  0.000E+00 retain N=  3 mean eig= 2.93
 eig:   7.968  0.408  0.408
 bond charge predicted
       N       E                     dE             d eps       ncg     rms          rms(c)
DAV:   1    -0.872582951516E+03   -0.13884E-03   -0.56213E-02   704   0.471E-01    0.419E-02
DAV:   2    -0.872583058016E+03   -0.10650E-03   -0.11907E-03   776   0.623E-02    0.208E-02
DAV:   3    -0.872583053238E+03    0.47785E-05   -0.21280E-05   824   0.991E-03    0.135E-02
DAV:   4    -0.872583050002E+03    0.32356E-05   -0.23037E-05   792   0.133E-02    0.524E-03
DAV:   5    -0.872583050197E+03   -0.19490E-06   -0.58271E-06   752   0.508E-03
  28 F= -.87258305E+03 E0= -.87258305E+03  d E =-.237446E-03
 BRION: g(F)=  0.362E-03 g(S)=  0.000E+00 retain N=  3 mean eig= 0.73
 eig:   1.830  0.284  0.079
 bond charge predicted
       N       E                     dE             d eps       ncg     rms          rms(c)
DAV:   1    -0.872583073954E+03   -0.23952E-04   -0.38708E-03   704   0.123E-01    0.285E-02
DAV:   2    -0.872583080011E+03   -0.60570E-05   -0.11052E-04   824   0.203E-02    0.904E-03
DAV:   3    -0.872583077334E+03    0.26770E-05   -0.47084E-06   776   0.637E-03    0.498E-03
DAV:   4    -0.872583076139E+03    0.11944E-05   -0.35317E-06   712   0.603E-03    0.165E-03
DAV:   5    -0.872583076102E+03    0.37391E-07   -0.14731E-06   504   0.305E-03
  29 F= -.87258308E+03 E0= -.87258308E+03  d E =-.259049E-04
 BRION: g(F)=  0.366E-03 g(S)=  0.000E+00 retain N=  3 mean eig= 1.33
 eig:   3.520  0.228  0.228
 bond charge predicted
       N       E                     dE             d eps       ncg     rms          rms(c)
DAV:   1    -0.872582990717E+03    0.85423E-04   -0.84172E-03   704   0.183E-01    0.299E-02
DAV:   2    -0.872583006903E+03   -0.16187E-04   -0.20902E-04   816   0.272E-02    0.107E-02
DAV:   3    -0.872583003967E+03    0.29363E-05   -0.55487E-06   800   0.678E-03    0.604E-03
DAV:   4    -0.872583002412E+03    0.15550E-05   -0.44531E-06   744   0.727E-03    0.170E-03
DAV:   5    -0.872583002478E+03   -0.66349E-07   -0.23005E-06   560   0.352E-03
  30 F= -.87258300E+03 E0= -.87258300E+03  d E =0.736234E-04
 BRION: g(F)=  0.323E-03 g(S)=  0.000E+00 retain N=  3 mean eig= 0.98
 eig:   2.326  0.302  0.302
 bond charge predicted
       N       E                     dE             d eps       ncg     rms          rms(c)
DAV:   1    -0.872583135989E+03   -0.13358E-03   -0.30851E-02   704   0.348E-01    0.307E-02
DAV:   2    -0.872583193886E+03   -0.57896E-04   -0.64392E-04   784   0.458E-02    0.156E-02
DAV:   3    -0.872583190841E+03    0.30452E-05   -0.10916E-05   832   0.715E-03    0.100E-02
DAV:   4    -0.872583188696E+03    0.21444E-05   -0.12432E-05   784   0.989E-03    0.352E-03
DAV:   5    -0.872583188838E+03   -0.14166E-06   -0.33354E-06   616   0.382E-03
  31 F= -.87258319E+03 E0= -.87258319E+03  d E =-.186360E-03
 BRION: g(F)=  0.248E-03 g(S)=  0.000E+00 retain N=  3 mean eig= 1.24
 eig:   3.202  0.203  0.301
 bond charge predicted
       N       E                     dE             d eps       ncg     rms          rms(c)
DAV:   1    -0.872583303058E+03   -0.11436E-03   -0.31688E-02   704   0.354E-01    0.352E-02
DAV:   2    -0.872583363071E+03   -0.60013E-04   -0.68444E-04   792   0.476E-02    0.160E-02
DAV:   3    -0.872583359904E+03    0.31664E-05   -0.13389E-05   832   0.791E-03    0.101E-02
DAV:   4    -0.872583357939E+03    0.19658E-05   -0.12190E-05   776   0.951E-03    0.373E-03
DAV:   5    -0.872583358024E+03   -0.85114E-07   -0.28969E-06   584   0.378E-03
  32 F= -.87258336E+03 E0= -.87258336E+03  d E =-.169186E-03
 BRION: g(F)=  0.295E-03 g(S)=  0.000E+00 retain N=  4 mean eig= 1.44
 eig:   5.111  0.083  0.187  0.390
 bond charge predicted
       N       E                     dE             d eps       ncg     rms          rms(c)
DAV:   1    -0.872583448534E+03   -0.90596E-04   -0.12351E-02   704   0.221E-01    0.265E-02
DAV:   2    -0.872583472207E+03   -0.23673E-04   -0.27946E-04   792   0.307E-02    0.106E-02
DAV:   3    -0.872583470337E+03    0.18706E-05   -0.57784E-06   768   0.577E-03    0.650E-03
DAV:   4    -0.872583469321E+03    0.10156E-05   -0.59486E-06   744   0.700E-03    0.241E-03
DAV:   5    -0.872583469360E+03   -0.39101E-07   -0.15791E-06   488   0.283E-03
  33 F= -.87258347E+03 E0= -.87258347E+03  d E =-.111336E-03
 BRION: g(F)=  0.249E-03 g(S)=  0.000E+00 retain N=  3 mean eig= 2.23
 eig:   6.193  0.255  0.255
 bond charge predicted
       N       E                     dE             d eps       ncg     rms          rms(c)
DAV:   1    -0.872583591512E+03   -0.12219E-03   -0.32368E-02   704   0.357E-01    0.305E-02
DAV:   2    -0.872583652257E+03   -0.60745E-04   -0.67876E-04   776   0.470E-02    0.157E-02
DAV:   3    -0.872583649650E+03    0.26070E-05   -0.12019E-05   816   0.738E-03    0.102E-02
DAV:   4    -0.872583647771E+03    0.18785E-05   -0.12860E-05   776   0.991E-03    0.393E-03
DAV:   5    -0.872583647886E+03   -0.11420E-06   -0.31125E-06   576   0.377E-03
  34 F= -.87258365E+03 E0= -.87258365E+03  d E =-.178526E-03
 BRION: g(F)=  0.231E-03 g(S)=  0.000E+00 retain N=  2 mean eig= 0.07
 eig:   0.138  0.010
 bond charge predicted
       N       E                     dE             d eps       ncg     rms          rms(c)
DAV:   1    -0.872583731795E+03   -0.84024E-04   -0.16309E-02   704   0.254E-01    0.302E-02
DAV:   2    -0.872583763019E+03   -0.31224E-04   -0.36739E-04   792   0.353E-02    0.121E-02
DAV:   3    -0.872583760439E+03    0.25805E-05   -0.73647E-06   816   0.685E-03    0.739E-03
DAV:   4    -0.872583758877E+03    0.15615E-05   -0.76489E-06   760   0.869E-03    0.274E-03
DAV:   5    -0.872583758962E+03   -0.85012E-07   -0.26893E-06   600   0.362E-03
  35 F= -.87258376E+03 E0= -.87258376E+03  d E =-.111077E-03
 BRION: g(F)=  0.303E-03 g(S)=  0.000E+00 retain N=  3 mean eig= 0.34
 eig:   0.634  0.128  0.259
 bond charge predicted
       N       E                     dE             d eps       ncg     rms          rms(c)
DAV:   1    -0.872583842516E+03   -0.83638E-04   -0.99453E-03   704   0.199E-01    0.246E-02
DAV:   2    -0.872583861181E+03   -0.18665E-04   -0.22683E-04   800   0.280E-02    0.987E-03
DAV:   3    -0.872583859589E+03    0.15914E-05   -0.55417E-06   816   0.544E-03    0.600E-03
DAV:   4    -0.872583858741E+03    0.84808E-06   -0.42386E-06   736   0.555E-03
  36 F= -.87258386E+03 E0= -.87258386E+03  d E =-.997788E-04
 BRION: g(F)=  0.210E-03 g(S)=  0.000E+00 retain N=  2 mean eig= 1.77
 eig:   0.172  3.363
 bond charge predicted
       N       E                     dE             d eps       ncg     rms          rms(c)
DAV:   1    -0.872583955275E+03   -0.95686E-04   -0.18368E-02   704   0.269E-01    0.264E-02
DAV:   2    -0.872583989296E+03   -0.34021E-04   -0.39113E-04   784   0.360E-02    0.123E-02
DAV:   3    -0.872583987300E+03    0.19952E-05   -0.75340E-06   800   0.620E-03    0.782E-03
DAV:   4    -0.872583986006E+03    0.12940E-05   -0.78960E-06   752   0.796E-03    0.294E-03
DAV:   5    -0.872583986076E+03   -0.69449E-07   -0.20394E-06   544   0.313E-03
  37 F= -.87258399E+03 E0= -.87258399E+03  d E =-.127335E-03
 BRION: g(F)=  0.238E-03 g(S)=  0.000E+00 retain N=  2 mean eig= 0.48
 eig:   0.269  0.687
 bond charge predicted
       N       E                     dE             d eps       ncg     rms          rms(c)
DAV:   1    -0.872584084444E+03   -0.98438E-04   -0.16458E-02   704   0.255E-01    0.212E-02
DAV:   2    -0.872584115568E+03   -0.31124E-04   -0.34723E-04   776   0.336E-02    0.111E-02
DAV:   3    -0.872584114419E+03    0.11497E-05   -0.60725E-06   744   0.515E-03    0.732E-03
DAV:   4    -0.872584113595E+03    0.82391E-06   -0.66434E-06   744   0.701E-03
  38 F= -.87258411E+03 E0= -.87258411E+03  d E =-.127519E-03
 BRION: g(F)=  0.187E-03 g(S)=  0.000E+00 retain N=  3 mean eig= 0.83
 eig:   0.960  0.960  0.583
 bond charge predicted
       N       E                     dE             d eps       ncg     rms          rms(c)
DAV:   1    -0.872584178369E+03   -0.63951E-04   -0.18716E-01   704   0.859E-01    0.736E-02
DAV:   2    -0.872584528812E+03   -0.35044E-03   -0.38896E-03   776   0.112E-01    0.378E-02
DAV:   3    -0.872584513895E+03    0.14918E-04   -0.68713E-05   824   0.172E-02    0.246E-02
DAV:   4    -0.872584503571E+03    0.10323E-04   -0.71442E-05   808   0.231E-02    0.912E-03
DAV:   5    -0.872584504322E+03   -0.75134E-06   -0.17767E-05   792   0.869E-03    0.931E-03
DAV:   6    -0.872584503679E+03    0.64391E-06   -0.39868E-06   664   0.437E-03
  39 F= -.87258450E+03 E0= -.87258450E+03  d E =-.390084E-03
 BRION: g(F)=  0.398E-03 g(S)=  0.000E+00 retain N=  4 mean eig= 1.99
 eig:   6.497  0.822  0.324  0.324
 bond charge predicted
       N       E                     dE             d eps       ncg     rms          rms(c)
DAV:   1    -0.872583336778E+03    0.11675E-02   -0.12425E+00   704   0.221E+00    0.173E-01
DAV:   2    -0.872585670619E+03   -0.23338E-02   -0.25562E-02   776   0.287E-01    0.961E-02
DAV:   3    -0.872585581779E+03    0.88840E-04   -0.41803E-04   816   0.417E-02    0.635E-02
DAV:   4    -0.872585515393E+03    0.66386E-04   -0.48703E-04   832   0.601E-02    0.239E-02
DAV:   5    -0.872585520238E+03   -0.48451E-05   -0.11989E-04   784   0.223E-02    0.246E-02
DAV:   6    -0.872585515484E+03    0.47546E-05   -0.28673E-05   792   0.116E-02    0.133E-02
DAV:   7    -0.872585513277E+03    0.22063E-05   -0.11457E-05   816   0.796E-03    0.407E-03
DAV:   8    -0.872585513706E+03   -0.42834E-06   -0.40436E-06   680   0.429E-03
  40 F= -.87258551E+03 E0= -.87258551E+03  d E =-.101003E-02
 BRION: g(F)=  0.218E-03 g(S)=  0.000E+00 retain N=  4 mean eig= 2.25
 eig:   4.044  4.044  0.461  0.461
 bond charge predicted
       N       E                     dE             d eps       ncg     rms          rms(c)
DAV:   1    -0.872585123722E+03    0.38956E-03   -0.77722E-02   704   0.554E-01    0.555E-02
DAV:   2    -0.872585270756E+03   -0.14703E-03   -0.16694E-03   792   0.744E-02    0.257E-02
DAV:   3    -0.872585261737E+03    0.90188E-05   -0.31324E-05   832   0.129E-02    0.162E-02
DAV:   4    -0.872585255706E+03    0.60316E-05   -0.32624E-05   800   0.170E-02    0.592E-03
DAV:   5    -0.872585256050E+03   -0.34399E-06   -0.10595E-05   808   0.701E-03    0.672E-03
DAV:   6    -0.872585255755E+03    0.29463E-06   -0.11408E-06   480   0.240E-03
  41 F= -.87258526E+03 E0= -.87258526E+03  d E =0.257950E-03
 BRION: g(F)=  0.478E-03 g(S)=  0.000E+00 retain N=  4 mean eig= 1.79
 eig:   5.579  0.610  0.492  0.492
 bond charge predicted
       N       E                     dE             d eps       ncg     rms          rms(c)
DAV:   1    -0.872585136000E+03    0.12005E-03   -0.19524E-02   704   0.279E-01    0.408E-02
DAV:   2    -0.872585173127E+03   -0.37127E-04   -0.46334E-04   808   0.401E-02    0.149E-02
DAV:   3    -0.872585168260E+03    0.48666E-05   -0.11399E-05   832   0.855E-03    0.882E-03
DAV:   4    -0.872585165982E+03    0.22778E-05   -0.10755E-05   784   0.906E-03    0.306E-03
DAV:   5    -0.872585166063E+03   -0.80465E-07   -0.31700E-06   656   0.403E-03
  42 F= -.87258517E+03 E0= -.87258517E+03  d E =0.896925E-04
 BRION: g(F)=  0.321E-03 g(S)=  0.000E+00 retain N=  3 mean eig= 1.55
 eig:   3.921  0.369  0.369
 bond charge predicted
       N       E                     dE             d eps       ncg     rms          rms(c)
DAV:   1    -0.872585247065E+03   -0.81083E-04   -0.12909E-01   704   0.714E-01    0.652E-02
DAV:   2    -0.872585490157E+03   -0.24309E-03   -0.27169E-03   792   0.946E-02    0.324E-02
DAV:   3    -0.872585476653E+03    0.13504E-04   -0.47889E-05   832   0.152E-02    0.207E-02
DAV:   4    -0.872585467413E+03    0.92401E-05   -0.50863E-05   816   0.201E-02    0.729E-03
DAV:   5    -0.872585467857E+03   -0.44380E-06   -0.14613E-05   808   0.821E-03    0.768E-03
DAV:   6    -0.872585467425E+03    0.43228E-06   -0.19946E-06   504   0.317E-03
  43 F= -.87258547E+03 E0= -.87258547E+03  d E =-.301362E-03
 BRION: g(F)=  0.335E-03 g(S)=  0.000E+00 retain N=  4 mean eig= 1.97
 eig:   6.658  0.100  0.570  0.570
 bond charge predicted
       N       E                     dE             d eps       ncg     rms          rms(c)
DAV:   1    -0.872585544953E+03   -0.77096E-04   -0.93153E-03   704   0.193E-01    0.296E-02
DAV:   2    -0.872585564042E+03   -0.19089E-04   -0.23539E-04   808   0.285E-02    0.113E-02
DAV:   3    -0.872585561236E+03    0.28067E-05   -0.51496E-06   736   0.626E-03    0.648E-03
DAV:   4    -0.872585559945E+03    0.12900E-05   -0.65182E-06   752   0.747E-03    0.231E-03
DAV:   5    -0.872585560014E+03   -0.68634E-07   -0.20486E-06   536   0.315E-03
  44 F= -.87258556E+03 E0= -.87258556E+03  d E =-.925894E-04
 BRION: g(F)=  0.169E-03 g(S)=  0.000E+00 retain N=  3 mean eig= 2.53
 eig:   7.181  0.229  0.180
 bond charge predicted
       N       E                     dE             d eps       ncg     rms          rms(c)
DAV:   1    -0.872585650615E+03   -0.90670E-04   -0.31074E-02   704   0.350E-01    0.308E-02
DAV:   2    -0.872585709051E+03   -0.58435E-04   -0.65256E-04   776   0.462E-02    0.158E-02
DAV:   3    -0.872585706307E+03    0.27439E-05   -0.11403E-05   816   0.707E-03    0.102E-02
DAV:   4    -0.872585704500E+03    0.18064E-05   -0.12381E-05   776   0.943E-03    0.375E-03
DAV:   5    -0.872585704582E+03   -0.81840E-07   -0.27607E-06   576   0.359E-03
  45 F= -.87258570E+03 E0= -.87258570E+03  d E =-.144568E-03
 BRION: g(F)=  0.181E-03 g(S)=  0.000E+00 retain N=  3 mean eig= 2.01
 eig:   5.548  0.345  0.146
 bond charge predicted
       N       E                     dE             d eps       ncg     rms          rms(c)
DAV:   1    -0.872585778393E+03   -0.73893E-04   -0.12380E-02   704   0.221E-01    0.224E-02
DAV:   2    -0.872585802173E+03   -0.23779E-04   -0.27193E-04   792   0.300E-02    0.104E-02
DAV:   3    -0.872585800807E+03    0.13653E-05   -0.49745E-06   696   0.510E-03    0.655E-03
DAV:   4    -0.872585800047E+03    0.76020E-06   -0.62797E-06   744   0.681E-03
  46 F= -.87258580E+03 E0= -.87258580E+03  d E =-.954650E-04
 BRION: g(F)=  0.152E-03 g(S)=  0.000E+00 retain N=  3 mean eig= 1.74
 eig:   4.959  0.265  0.008
 bond charge predicted
       N       E                     dE             d eps       ncg     rms          rms(c)
DAV:   1    -0.872585888059E+03   -0.87251E-04   -0.33511E-02   704   0.364E-01    0.369E-02
DAV:   2    -0.872585950904E+03   -0.62845E-04   -0.72474E-04   784   0.492E-02    0.171E-02
DAV:   3    -0.872585947221E+03    0.36826E-05   -0.14827E-05   832   0.857E-03    0.108E-02
DAV:   4    -0.872585944928E+03    0.22933E-05   -0.14100E-05   792   0.102E-02    0.408E-03
DAV:   5    -0.872585944977E+03   -0.49462E-07   -0.33823E-06   624   0.419E-03
  47 F= -.87258594E+03 E0= -.87258594E+03  d E =-.144930E-03
 BRION: g(F)=  0.253E-03 g(S)=  0.000E+00 retain N=  2 mean eig= 0.32
 eig:   0.232  0.402
 bond charge predicted
       N       E                     dE             d eps       ncg     rms          rms(c)
DAV:   1    -0.872585954808E+03   -0.98799E-05   -0.78786E-04   704   0.550E-02    0.142E-02
DAV:   2    -0.872585955789E+03   -0.98153E-06   -0.23906E-05   824   0.961E-03    0.478E-03
DAV:   3    -0.872585955086E+03    0.70353E-06   -0.11656E-06   520   0.328E-03
  48 F= -.87258596E+03 E0= -.87258596E+03  d E =-.101085E-04
 BRION: g(F)=  0.167E-03 g(S)=  0.000E+00 retain N=  2 mean eig= 2.50
 eig:   0.279  4.729
 bond charge predicted
       N       E                     dE             d eps       ncg     rms          rms(c)
DAV:   1    -0.872585985006E+03   -0.29216E-04   -0.18799E-03   704   0.864E-02    0.899E-03
DAV:   2    -0.872585988499E+03   -0.34935E-05   -0.40273E-05   800   0.116E-02    0.425E-03
DAV:   3    -0.872585988249E+03    0.24969E-06   -0.68550E-07   488   0.194E-03
  49 F= -.87258599E+03 E0= -.87258599E+03  d E =-.331636E-04
 BRION: g(F)=  0.186E-03 g(S)=  0.000E+00 retain N=  2 mean eig= 0.37
 eig:   0.251  0.498
 bond charge predicted
       N       E                     dE             d eps       ncg     rms          rms(c)
DAV:   1    -0.872586056548E+03   -0.68049E-04   -0.14169E-02   704   0.237E-01    0.285E-02
DAV:   2    -0.872586082254E+03   -0.25706E-04   -0.30511E-04   800   0.322E-02    0.113E-02
DAV:   3    -0.872586079845E+03    0.24090E-05   -0.64603E-06   800   0.625E-03    0.683E-03
DAV:   4    -0.872586078470E+03    0.13745E-05   -0.59179E-06   736   0.731E-03    0.223E-03
DAV:   5    -0.872586078544E+03   -0.74149E-07   -0.19299E-06   520   0.311E-03
  50 F= -.87258608E+03 E0= -.87258608E+03  d E =-.902950E-04
 BRION: g(F)=  0.217E-03 g(S)=  0.000E+00 retain N=  3 mean eig= 0.83
 eig:   1.913  0.229  0.354
 bond charge predicted
       N       E                     dE             d eps       ncg     rms          rms(c)
DAV:   1    -0.872586129218E+03   -0.50748E-04   -0.45485E-03   704   0.135E-01    0.188E-02
DAV:   2    -0.872586137677E+03   -0.84590E-05   -0.10673E-04   800   0.194E-02    0.719E-03
DAV:   3    -0.872586136624E+03    0.10530E-05   -0.25432E-06   568   0.422E-03    0.422E-03
DAV:   4    -0.872586136045E+03    0.57896E-06   -0.23292E-06   528   0.466E-03
  51 F= -.87258614E+03 E0= -.87258614E+03  d E =-.575008E-04
 BRION: g(F)=  0.153E-03 g(S)=  0.000E+00 retain N=  3 mean eig= 2.79
 eig:   7.954  0.050  0.363
 bond charge predicted
       N       E                     dE             d eps       ncg     rms          rms(c)
DAV:   1    -0.872586206254E+03   -0.69630E-04   -0.12686E-02   704   0.224E-01    0.221E-02
DAV:   2    -0.872586230028E+03   -0.23774E-04   -0.27145E-04   784   0.300E-02    0.104E-02
DAV:   3    -0.872586228672E+03    0.13560E-05   -0.52793E-06   744   0.513E-03    0.654E-03
DAV:   4    -0.872586227790E+03    0.88196E-06   -0.51887E-06   736   0.634E-03
  52 F= -.87258623E+03 E0= -.87258623E+03  d E =-.917447E-04
 BRION: g(F)=  0.156E-03 g(S)=  0.000E+00 retain N=  2 mean eig= 0.17
 eig:   0.173  0.173
 bond charge predicted
       N       E                     dE             d eps       ncg     rms          rms(c)
DAV:   1    -0.872586300581E+03   -0.71909E-04   -0.13193E-02   704   0.228E-01    0.238E-02
DAV:   2    -0.872586324929E+03   -0.24348E-04   -0.28354E-04   792   0.308E-02    0.106E-02
DAV:   3    -0.872586323437E+03    0.14915E-05   -0.59142E-06   792   0.552E-03    0.668E-03
DAV:   4    -0.872586322501E+03    0.93690E-06   -0.52688E-06   720   0.660E-03
  53 F= -.87258632E+03 E0= -.87258632E+03  d E =-.947106E-04
 BRION: g(F)=  0.147E-03 g(S)=  0.000E+00 retain N=  2 mean eig= 3.54
 eig:   0.206  6.873
 bond charge predicted
       N       E                     dE             d eps       ncg     rms          rms(c)
DAV:   1    -0.872586406772E+03   -0.83334E-04   -0.25043E-02   704   0.314E-01    0.299E-02
DAV:   2    -0.872586452764E+03   -0.45992E-04   -0.52469E-04   784   0.417E-02    0.142E-02
DAV:   3    -0.872586450332E+03    0.24314E-05   -0.10356E-05   832   0.694E-03    0.903E-03
DAV:   4    -0.872586448676E+03    0.16563E-05   -0.86161E-06   760   0.835E-03    0.318E-03
DAV:   5    -0.872586448767E+03   -0.91270E-07   -0.24238E-06   576   0.346E-03
  54 F= -.87258645E+03 E0= -.87258645E+03  d E =-.126267E-03
 BRION: g(F)=  0.193E-03 g(S)=  0.000E+00 retain N=  2 mean eig= 0.26
 eig:   0.237  0.281
 bond charge predicted
       N       E                     dE             d eps       ncg     rms          rms(c)
DAV:   1    -0.872586435069E+03    0.13607E-04   -0.75326E-04   704   0.550E-02    0.898E-03
DAV:   2    -0.872586436396E+03   -0.13269E-05   -0.18482E-05   808   0.821E-03    0.362E-03
DAV:   3    -0.872586436080E+03    0.31601E-06   -0.49983E-07   480   0.200E-03
  55 F= -.87258644E+03 E0= -.87258644E+03  d E =0.126871E-04
 BRION: g(F)=  0.154E-03 g(S)=  0.000E+00 retain N=  2 mean eig= 3.01
 eig:   0.320  5.700
 bond charge predicted
       N       E                     dE             d eps       ncg     rms          rms(c)
DAV:   1    -0.872586476924E+03   -0.40528E-04   -0.72384E-03   704   0.170E-01    0.229E-02
DAV:   2    -0.872586490466E+03   -0.13541E-04   -0.16640E-04   800   0.241E-02    0.867E-03
DAV:   3    -0.872586488723E+03    0.17428E-05   -0.38246E-06   688   0.522E-03    0.513E-03
DAV:   4    -0.872586487644E+03    0.10788E-05   -0.34775E-06   712   0.602E-03    0.161E-03
DAV:   5    -0.872586487679E+03   -0.34670E-07   -0.14787E-06   512   0.280E-03
  56 F= -.87258649E+03 E0= -.87258649E+03  d E =-.515988E-04
 BRION: g(F)=  0.257E-03 g(S)=  0.000E+00 retain N=  2 mean eig= 0.22
 eig:   0.248  0.199
 bond charge predicted
       N       E                     dE             d eps       ncg     rms          rms(c)
DAV:   1    -0.872586558828E+03   -0.71184E-04   -0.11410E-02   704   0.213E-01    0.283E-02
DAV:   2    -0.872586579936E+03   -0.21108E-04   -0.25950E-04   800   0.300E-02    0.108E-02
DAV:   3    -0.872586577575E+03    0.23608E-05   -0.61235E-06   808   0.628E-03    0.644E-03
DAV:   4    -0.872586576346E+03    0.12297E-05   -0.55372E-06   736   0.683E-03    0.218E-03
DAV:   5    -0.872586576400E+03   -0.54359E-07   -0.17193E-06   544   0.298E-03
  57 F= -.87258658E+03 E0= -.87258658E+03  d E =-.887212E-04
 BRION: g(F)=  0.165E-03 g(S)=  0.000E+00 retain N=  2 mean eig= 1.55
 eig:   0.215  2.885
 bond charge predicted
       N       E                     dE             d eps       ncg     rms          rms(c)
DAV:   1    -0.872586630090E+03   -0.53744E-04   -0.60725E-03   704   0.155E-01    0.166E-02
DAV:   2    -0.872586641338E+03   -0.11248E-04   -0.13181E-04   784   0.211E-02    0.740E-03
DAV:   3    -0.872586640529E+03    0.80908E-06   -0.25520E-06   584   0.385E-03
  58 F= -.87258664E+03 E0= -.87258664E+03  d E =-.641290E-04
 BRION: g(F)=  0.140E-03 g(S)=  0.000E+00 retain N=  2 mean eig= 0.27
 eig:   0.189  0.345
 bond charge predicted
       N       E                     dE             d eps       ncg     rms          rms(c)
DAV:   1    -0.872586724565E+03   -0.83227E-04   -0.23059E-02   704   0.301E-01    0.240E-02
DAV:   2    -0.872586765464E+03   -0.40899E-04   -0.45490E-04   776   0.383E-02    0.131E-02
DAV:   3    -0.872586763918E+03    0.15462E-05   -0.82361E-06   776   0.565E-03    0.847E-03
DAV:   4    -0.872586762703E+03    0.12148E-05   -0.67997E-06   760   0.720E-03    0.280E-03
DAV:   5    -0.872586762824E+03   -0.12085E-06   -0.17958E-06   488   0.273E-03
  59 F= -.87258676E+03 E0= -.87258676E+03  d E =-.122295E-03
 BRION: g(F)=  0.135E-03 g(S)=  0.000E+00 retain N=  3 mean eig= 0.41
 eig:   0.718  0.149  0.377
 bond charge predicted
       N       E                     dE             d eps       ncg     rms          rms(c)
DAV:   1    -0.872586839445E+03   -0.76742E-04   -0.19445E-02   704   0.277E-01    0.239E-02
DAV:   2    -0.872586876576E+03   -0.37131E-04   -0.41225E-04   784   0.366E-02    0.123E-02
DAV:   3    -0.872586875102E+03    0.14738E-05   -0.69317E-06   768   0.566E-03    0.807E-03
DAV:   4    -0.872586874166E+03    0.93668E-06   -0.88603E-06   752   0.802E-03
  60 F= -.87258687E+03 E0= -.87258687E+03  d E =-.111342E-03
 BRION: g(F)=  0.126E-03 g(S)=  0.000E+00 retain N=  4 mean eig= 1.11
 eig:   2.171  2.171  0.058  0.058
 bond charge predicted
       N       E                     dE             d eps       ncg     rms          rms(c)
DAV:   1    -0.872585844318E+03    0.10308E-02   -0.10342E+00   704   0.202E+00    0.159E-01
DAV:   2    -0.872587773881E+03   -0.19296E-02   -0.21215E-02   776   0.262E-01    0.888E-02
DAV:   3    -0.872587702758E+03    0.71122E-04   -0.35878E-04   816   0.385E-02    0.587E-02
DAV:   4    -0.872587650436E+03    0.52322E-04   -0.39930E-04   824   0.538E-02    0.222E-02
DAV:   5    -0.872587654059E+03   -0.36231E-05   -0.94669E-05   784   0.199E-02    0.223E-02
DAV:   6    -0.872587650100E+03    0.39591E-05   -0.26018E-05   800   0.112E-02    0.117E-02
DAV:   7    -0.872587648480E+03    0.16204E-05   -0.86128E-06   792   0.678E-03    0.391E-03
DAV:   8    -0.872587648834E+03   -0.35424E-06   -0.35247E-06   640   0.401E-03
  61 F= -.87258765E+03 E0= -.87258765E+03  d E =-.774669E-03
 BRION: g(F)=  0.244E-03 g(S)=  0.000E+00 retain N=  5 mean eig= 1.37
 eig:   2.852  2.852  0.684  0.234  0.234
 bond charge predicted
       N       E                     dE             d eps       ncg     rms          rms(c)
DAV:   1    -0.872586910400E+03    0.73808E-03   -0.81299E-01   704   0.179E+00    0.139E-01
DAV:   2    -0.872588419736E+03   -0.15093E-02   -0.16482E-02   776   0.230E-01    0.778E-02
DAV:   3    -0.872588361902E+03    0.57834E-04   -0.26550E-04   808   0.329E-02    0.511E-02
DAV:   4    -0.872588318515E+03    0.43387E-04   -0.30083E-04   840   0.474E-02    0.182E-02
DAV:   5    -0.872588321918E+03   -0.34032E-05   -0.76376E-05   784   0.177E-02    0.189E-02
DAV:   6    -0.872588319153E+03    0.27646E-05   -0.16814E-05   800   0.884E-03    0.104E-02
DAV:   7    -0.872588317822E+03    0.13316E-05   -0.67362E-06   784   0.612E-03    0.305E-03
DAV:   8    -0.872588318082E+03   -0.26003E-06   -0.22669E-06   568   0.319E-03
  62 F= -.87258832E+03 E0= -.87258832E+03  d E =-.669248E-03
 BRION: g(F)=  0.164E-03 g(S)=  0.000E+00 retain N=  6 mean eig= 1.82
 eig:   6.907  2.508  0.122  0.122  0.617  0.617
 bond charge predicted
       N       E                     dE             d eps       ncg     rms          rms(c)
DAV:   1    -0.872588040561E+03    0.27726E-03   -0.42325E-01   704   0.129E+00    0.984E-02
DAV:   2    -0.872588828068E+03   -0.78751E-03   -0.85918E-03   776   0.166E-01    0.563E-02
DAV:   3    -0.872588798553E+03    0.29514E-04   -0.13721E-04   808   0.237E-02    0.373E-02
DAV:   4    -0.872588776453E+03    0.22100E-04   -0.16267E-04   840   0.345E-02    0.136E-02
DAV:   5    -0.872588778023E+03   -0.15699E-05   -0.39907E-05   776   0.129E-02    0.140E-02
DAV:   6    -0.872588776484E+03    0.15392E-05   -0.97563E-06   792   0.678E-03    0.742E-03
DAV:   7    -0.872588775786E+03    0.69785E-06   -0.31378E-06   600   0.428E-03
  63 F= -.87258878E+03 E0= -.87258878E+03  d E =-.457704E-03
 BRION: g(F)=  0.179E-03 g(S)=  0.000E+00 retain N=  5 mean eig= 2.76
 eig:   4.852  3.637  3.637  0.838  0.838
 bond charge predicted
       N       E                     dE             d eps       ncg     rms          rms(c)
DAV:   1    -0.872579338628E+03    0.94379E-02   -0.45262E+00   704   0.422E+00    0.326E-01
DAV:   2    -0.872587765216E+03   -0.84266E-02   -0.92207E-02   776   0.545E-01    0.184E-01
DAV:   3    -0.872587452394E+03    0.31282E-03   -0.15226E-03   808   0.787E-02    0.122E-01
DAV:   4    -0.872587214928E+03    0.23747E-03   -0.16768E-03   840   0.111E-01    0.445E-02
DAV:   5    -0.872587233013E+03   -0.18085E-04   -0.41347E-04   792   0.413E-02    0.456E-02
DAV:   6    -0.872587216554E+03    0.16459E-04   -0.10534E-04   800   0.225E-02    0.241E-02
DAV:   7    -0.872587209409E+03    0.71453E-05   -0.36399E-05   816   0.140E-02    0.762E-03
DAV:   8    -0.872587210976E+03   -0.15676E-05   -0.14267E-05   784   0.787E-03    0.578E-03
DAV:   9    -0.872587210650E+03    0.32596E-06   -0.88884E-07   512   0.295E-03
  64 F= -.87258721E+03 E0= -.87258721E+03  d E =0.156514E-02
 BRION: g(F)=  0.265E-03 g(S)=  0.000E+00 retain N=  3 mean eig= 1.75
 eig:   3.827  0.708  0.708
 bond charge predicted
       N       E                     dE             d eps       ncg     rms          rms(c)
DAV:   1    -0.872585457240E+03    0.17537E-02   -0.15502E+00   704   0.247E+00    0.193E-01
DAV:   2    -0.872588339782E+03   -0.28825E-02   -0.31604E-02   776   0.319E-01    0.108E-01
DAV:   3    -0.872588229557E+03    0.11023E-03   -0.52096E-04   808   0.462E-02    0.708E-02
DAV:   4    -0.872588146900E+03    0.82657E-04   -0.56645E-04   840   0.647E-02    0.255E-02
DAV:   5    -0.872588153362E+03   -0.64618E-05   -0.14243E-04   792   0.242E-02    0.263E-02
DAV:   6    -0.872588147887E+03    0.54756E-05   -0.33811E-05   800   0.127E-02    0.143E-02
DAV:   7    -0.872588145421E+03    0.24651E-05   -0.12571E-05   800   0.830E-03    0.432E-03
DAV:   8    -0.872588145853E+03   -0.43161E-06   -0.42613E-06   680   0.435E-03
  65 F= -.87258815E+03 E0= -.87258815E+03  d E =-.935203E-03
 BRION: g(F)=  0.265E-03 g(S)=  0.000E+00 retain N=  4 mean eig= 1.55
 eig:   4.002  0.801  0.801  0.600
 bond charge predicted
       N       E                     dE             d eps       ncg     rms          rms(c)
DAV:   1    -0.872587889350E+03    0.25607E-03   -0.58424E-02   704   0.480E-01    0.467E-02
DAV:   2    -0.872587998065E+03   -0.10872E-03   -0.12349E-03   784   0.640E-02    0.219E-02
DAV:   3    -0.872587991912E+03    0.61533E-05   -0.24125E-05   832   0.107E-02    0.138E-02
DAV:   4    -0.872587987853E+03    0.40589E-05   -0.20501E-05   792   0.127E-02    0.471E-03
DAV:   5    -0.872587988102E+03   -0.24906E-06   -0.60490E-06   760   0.530E-03
  66 F= -.87258799E+03 E0= -.87258799E+03  d E =0.157751E-03
 BRION: g(F)=  0.153E-03 g(S)=  0.000E+00 retain N=  2 mean eig= 1.41
 eig:   0.444  2.381
 bond charge predicted
       N       E                     dE             d eps       ncg     rms          rms(c)
DAV:   1    -0.872588038332E+03   -0.50480E-04   -0.11844E-02   704   0.217E-01    0.276E-02
DAV:   2    -0.872588060743E+03   -0.22411E-04   -0.26530E-04   808   0.301E-02    0.118E-02
DAV:   3    -0.872588058191E+03    0.25523E-05   -0.56205E-06   792   0.573E-03    0.698E-03
DAV:   4    -0.872588056939E+03    0.12518E-05   -0.58930E-06   760   0.644E-03    0.217E-03
DAV:   5    -0.872588056968E+03   -0.28522E-07   -0.14702E-06   488   0.278E-03
  67 F= -.87258806E+03 E0= -.87258806E+03  d E =-.688661E-04
 BRION: g(F)=  0.191E-03 g(S)=  0.000E+00 retain N=  3 mean eig= 1.10
 eig:   2.651  0.489  0.154
 bond charge predicted
       N       E                     dE             d eps       ncg     rms          rms(c)
DAV:   1    -0.872588103228E+03   -0.46289E-04   -0.42662E-03   704   0.130E-01    0.192E-02
DAV:   2    -0.872588111502E+03   -0.82736E-05   -0.10306E-04   816   0.188E-02    0.733E-03
DAV:   3    -0.872588110442E+03    0.10602E-05   -0.23220E-06   544   0.388E-03    0.426E-03
DAV:   4    -0.872588109961E+03    0.48053E-06   -0.25503E-06   608   0.429E-03
  68 F= -.87258811E+03 E0= -.87258811E+03  d E =-.529936E-04
 BRION: g(F)=  0.111E-03 g(S)=  0.000E+00 retain N=  2 mean eig= 2.95
 eig:   0.226  5.676
 bond charge predicted
       N       E                     dE             d eps       ncg     rms          rms(c)
DAV:   1    -0.872588181335E+03   -0.70893E-04   -0.23037E-02   704   0.301E-01    0.269E-02
DAV:   2    -0.872588224142E+03   -0.42807E-04   -0.47743E-04   776   0.394E-02    0.138E-02
DAV:   3    -0.872588222096E+03    0.20462E-05   -0.83243E-06   800   0.614E-03    0.882E-03
DAV:   4    -0.872588220737E+03    0.13590E-05   -0.88131E-06   768   0.820E-03    0.306E-03
DAV:   5    -0.872588220824E+03   -0.87435E-07   -0.22216E-06   544   0.318E-03
  69 F= -.87258822E+03 E0= -.87258822E+03  d E =-.110863E-03
 BRION: g(F)=  0.133E-03 g(S)=  0.000E+00 retain N=  3 mean eig= 2.65
 eig:   7.496  0.223  0.223
 bond charge predicted
       N       E                     dE             d eps       ncg     rms          rms(c)
DAV:   1    -0.872588273293E+03   -0.52556E-04   -0.78888E-03   704   0.177E-01    0.193E-02
DAV:   2    -0.872588288254E+03   -0.14961E-04   -0.17365E-04   792   0.241E-02    0.836E-03
DAV:   3    -0.872588287336E+03    0.91768E-06   -0.33920E-06   656   0.424E-03
  70 F= -.87258829E+03 E0= -.87258829E+03  d E =-.665122E-04
 BRION: g(F)=  0.118E-03 g(S)=  0.000E+00 retain N=  3 mean eig= 1.94
 eig:   0.290  0.290  5.242
 bond charge predicted
       N       E                     dE             d eps       ncg     rms          rms(c)
DAV:   1    -0.872588243742E+03    0.44512E-04   -0.29461E-03   704   0.108E-01    0.103E-02
DAV:   2    -0.872588250118E+03   -0.63765E-05   -0.68986E-05   792   0.151E-02    0.544E-03
DAV:   3    -0.872588249688E+03    0.43054E-06   -0.95055E-07   496   0.263E-03
  71 F= -.87258825E+03 E0= -.87258825E+03  d E =0.376485E-04
 BRION: g(F)=  0.112E-03 g(S)=  0.000E+00 retain N=  2 mean eig= 0.19
 eig:   0.241  0.134
 bond charge predicted
       N       E                     dE             d eps       ncg     rms          rms(c)
DAV:   1    -0.872588316795E+03   -0.66677E-04   -0.21038E-02   704   0.288E-01    0.233E-02
DAV:   2    -0.872588357359E+03   -0.40564E-04   -0.44342E-04   784   0.378E-02    0.131E-02
DAV:   3    -0.872588355459E+03    0.19008E-05   -0.66943E-06   744   0.556E-03    0.864E-03
DAV:   4    -0.872588354211E+03    0.12472E-05   -0.10441E-05   784   0.857E-03    0.343E-03
DAV:   5    -0.872588354232E+03   -0.21035E-07   -0.23542E-06   536   0.329E-03
  72 F= -.87258835E+03 E0= -.87258835E+03  d E =-.104545E-03
 BRION: g(F)=  0.122E-03 g(S)=  0.000E+00 retain N=  3 mean eig= 0.25
 eig:   0.038  0.351  0.351
 bond charge predicted
       N       E                     dE             d eps       ncg     rms          rms(c)
DAV:   1    -0.872588389173E+03   -0.34962E-04   -0.33054E-03   704   0.114E-01    0.148E-02
DAV:   2    -0.872588395460E+03   -0.62870E-05   -0.75852E-05   800   0.160E-02    0.557E-03
DAV:   3    -0.872588394954E+03    0.50653E-06   -0.15478E-06   528   0.308E-03
  73 F= -.87258839E+03 E0= -.87258839E+03  d E =-.407213E-04
 BRION: g(F)=  0.114E-03 g(S)=  0.000E+00 retain N=  1 mean eig= 0.23
 eig:   0.231
 bond charge predicted
       N       E                     dE             d eps       ncg     rms          rms(c)
DAV:   1    -0.872588458235E+03   -0.62774E-04   -0.16154E-02   704   0.252E-01    0.230E-02
DAV:   2    -0.872588487078E+03   -0.28843E-04   -0.32560E-04   784   0.326E-02    0.115E-02
DAV:   3    -0.872588485614E+03    0.14640E-05   -0.60198E-06   736   0.527E-03    0.723E-03
DAV:   4    -0.872588484572E+03    0.10416E-05   -0.53679E-06   736   0.667E-03    0.230E-03
DAV:   5    -0.872588484647E+03   -0.75437E-07   -0.15573E-06   480   0.273E-03
  74 F= -.87258848E+03 E0= -.87258848E+03  d E =-.896938E-04
 BRION: g(F)=  0.137E-03 g(S)=  0.000E+00 retain N=  2 mean eig= 0.23
 eig:   0.152  0.306
 bond charge predicted
       N       E                     dE             d eps       ncg     rms          rms(c)
DAV:   1    -0.872588510283E+03   -0.25711E-04   -0.15109E-03   704   0.776E-02    0.127E-02
DAV:   2    -0.872588513080E+03   -0.27970E-05   -0.38405E-05   816   0.118E-02    0.460E-03
DAV:   3    -0.872588512608E+03    0.47185E-06   -0.10640E-06   496   0.290E-03
  75 F= -.87258851E+03 E0= -.87258851E+03  d E =-.279606E-04
 BRION: g(F)=  0.111E-03 g(S)=  0.000E+00 retain N=  1 mean eig= 0.24
 eig:   0.245
 bond charge predicted
       N       E                     dE             d eps       ncg     rms          rms(c)
DAV:   1    -0.872588577472E+03   -0.64392E-04   -0.19563E-02   704   0.277E-01    0.258E-02
DAV:   2    -0.872588613296E+03   -0.35824E-04   -0.40407E-04   792   0.364E-02    0.129E-02
DAV:   3    -0.872588611454E+03    0.18422E-05   -0.74385E-06   800   0.581E-03    0.818E-03
DAV:   4    -0.872588610220E+03    0.12331E-05   -0.72028E-06   760   0.734E-03    0.279E-03
DAV:   5    -0.872588610271E+03   -0.50510E-07   -0.17943E-06   504   0.301E-03
  76 F= -.87258861E+03 E0= -.87258861E+03  d E =-.976629E-04
 BRION: g(F)=  0.146E-03 g(S)=  0.000E+00 retain N=  2 mean eig= 0.24
 eig:   0.285  0.195
 bond charge predicted
       N       E                     dE             d eps       ncg     rms          rms(c)
DAV:   1    -0.872588637781E+03   -0.27560E-04   -0.18368E-03   704   0.852E-02    0.144E-02
DAV:   2    -0.872588641222E+03   -0.34416E-05   -0.45937E-05   816   0.127E-02    0.493E-03
DAV:   3    -0.872588640655E+03    0.56763E-06   -0.11307E-06   512   0.298E-03
  77 F= -.87258864E+03 E0= -.87258864E+03  d E =-.303837E-04
 BRION: g(F)=  0.108E-03 g(S)=  0.000E+00 retain N=  1 mean eig= 0.24
 eig:   0.245
 bond charge predicted
       N       E                     dE             d eps       ncg     rms          rms(c)
DAV:   1    -0.872588707561E+03   -0.66339E-04   -0.20231E-02   704   0.282E-01    0.245E-02
DAV:   2    -0.872588744142E+03   -0.36580E-04   -0.40887E-04   776   0.364E-02    0.127E-02
DAV:   3    -0.872588742432E+03    0.17092E-05   -0.72366E-06   776   0.569E-03    0.816E-03
DAV:   4    -0.872588741189E+03    0.12432E-05   -0.71075E-06   760   0.757E-03    0.274E-03
DAV:   5    -0.872588741270E+03   -0.80843E-07   -0.19572E-06   536   0.301E-03
  78 F= -.87258874E+03 E0= -.87258874E+03  d E =-.100615E-03
 BRION: g(F)=  0.125E-03 g(S)=  0.000E+00 retain N=  2 mean eig= 0.19
 eig:   0.306  0.074
 bond charge predicted
       N       E                     dE             d eps       ncg     rms          rms(c)
DAV:   1    -0.872588770759E+03   -0.29570E-04   -0.21367E-03   704   0.921E-02    0.135E-02
DAV:   2    -0.872588774749E+03   -0.39905E-05   -0.51647E-05   800   0.135E-02    0.497E-03
DAV:   3    -0.872588774254E+03    0.49563E-06   -0.12577E-06   520   0.301E-03
  79 F= -.87258877E+03 E0= -.87258877E+03  d E =-.329837E-04
 BRION: g(F)=  0.108E-03 g(S)=  0.000E+00 retain N=  1 mean eig= 0.24
 eig:   0.245
 bond charge predicted
       N       E                     dE             d eps       ncg     rms          rms(c)
DAV:   1    -0.872588837038E+03   -0.62289E-04   -0.17176E-02   704   0.260E-01    0.236E-02
DAV:   2    -0.872588868094E+03   -0.31056E-04   -0.35031E-04   784   0.338E-02    0.119E-02
DAV:   3    -0.872588866550E+03    0.15439E-05   -0.64415E-06   760   0.536E-03    0.759E-03
DAV:   4    -0.872588865495E+03    0.10548E-05   -0.60340E-06   744   0.677E-03    0.250E-03
DAV:   5    -0.872588865554E+03   -0.59008E-07   -0.15415E-06   480   0.275E-03
  80 F= -.87258887E+03 E0= -.87258887E+03  d E =-.913005E-04
 BRION: g(F)=  0.131E-03 g(S)=  0.000E+00 retain N=  2 mean eig= 0.26
 eig:   0.226  0.285
 bond charge predicted
       N       E                     dE             d eps       ncg     rms          rms(c)
DAV:   1    -0.872588891809E+03   -0.26314E-04   -0.17491E-03   704   0.832E-02    0.135E-02
DAV:   2    -0.872588895081E+03   -0.32721E-05   -0.42944E-05   808   0.123E-02    0.465E-03
DAV:   3    -0.872588894579E+03    0.50189E-06   -0.10291E-06   520   0.282E-03
  81 F= -.87258889E+03 E0= -.87258889E+03  d E =-.290254E-04
 BRION: g(F)=  0.104E-03 g(S)=  0.000E+00 retain N=  1 mean eig= 0.24
 eig:   0.241
 bond charge predicted
       N       E                     dE             d eps       ncg     rms          rms(c)
DAV:   1    -0.872588956655E+03   -0.61574E-04   -0.18714E-02   704   0.271E-01    0.244E-02
DAV:   2    -0.872588990366E+03   -0.33711E-04   -0.37872E-04   784   0.351E-02    0.123E-02
DAV:   3    -0.872588988645E+03    0.17215E-05   -0.67680E-06   776   0.561E-03    0.780E-03
DAV:   4    -0.872588987419E+03    0.12256E-05   -0.65115E-06   744   0.738E-03    0.256E-03
DAV:   5    -0.872588987505E+03   -0.86024E-07   -0.19166E-06   536   0.299E-03
  82 F= -.87258899E+03 E0= -.87258899E+03  d E =-.929255E-04
 BRION: g(F)=  0.127E-03 g(S)=  0.000E+00 retain N=  2 mean eig= 0.22
 eig:   0.295  0.149
 bond charge predicted
       N       E                     dE             d eps       ncg     rms          rms(c)
DAV:   1    -0.872589013885E+03   -0.26466E-04   -0.17391E-03   704   0.831E-02    0.133E-02
DAV:   2    -0.872589017074E+03   -0.31886E-05   -0.43295E-05   800   0.125E-02    0.477E-03
DAV:   3    -0.872589016575E+03    0.49806E-06   -0.11767E-06   520   0.299E-03
  83 F= -.87258902E+03 E0= -.87258902E+03  d E =-.290704E-04
 BRION: g(F)=  0.101E-03 g(S)=  0.000E+00 retain N=  1 mean eig= 0.24
 eig:   0.244
 bond charge predicted
       N       E                     dE             d eps       ncg     rms          rms(c)
DAV:   1    -0.872589076482E+03   -0.59408E-04   -0.17379E-02   704   0.261E-01    0.232E-02
DAV:   2    -0.872589107845E+03   -0.31364E-04   -0.35269E-04   784   0.339E-02    0.119E-02
DAV:   3    -0.872589106314E+03    0.15313E-05   -0.63521E-06   768   0.530E-03    0.760E-03
DAV:   4    -0.872589105242E+03    0.10723E-05   -0.60286E-06   744   0.677E-03    0.250E-03
DAV:   5    -0.872589105304E+03   -0.61824E-07   -0.15580E-06   480   0.275E-03
  84 F= -.87258911E+03 E0= -.87258911E+03  d E =-.887283E-04
 BRION: g(F)=  0.120E-03 g(S)=  0.000E+00 retain N=  2 mean eig= 0.26
 eig:   0.230  0.288
 bond charge predicted
       N       E                     dE             d eps       ncg     rms          rms(c)
DAV:   1    -0.872589130749E+03   -0.25507E-04   -0.17012E-03   704   0.820E-02    0.128E-02
DAV:   2    -0.872589133970E+03   -0.32203E-05   -0.41721E-05   808   0.121E-02    0.452E-03
DAV:   3    -0.872589133518E+03    0.45199E-06   -0.96780E-07   512   0.273E-03
  85 F= -.87258913E+03 E0= -.87258913E+03  d E =-.282138E-04
 BRION: g(F)=  0.969E-04 g(S)=  0.000E+00 retain N=  1 mean eig= 0.24
 eig:   0.240
 bond charge predicted
       N       E                     dE             d eps       ncg     rms          rms(c)
DAV:   1    -0.872589193457E+03   -0.59488E-04   -0.17011E-02   704   0.258E-01    0.224E-02
DAV:   2    -0.872589223960E+03   -0.30503E-04   -0.34146E-04   776   0.333E-02    0.116E-02
DAV:   3    -0.872589222529E+03    0.14310E-05   -0.59711E-06   720   0.516E-03    0.743E-03
DAV:   4    -0.872589221484E+03    0.10450E-05   -0.58961E-06   736   0.692E-03    0.242E-03
DAV:   5    -0.872589221563E+03   -0.78973E-07   -0.16244E-06   480   0.274E-03
  86 F= -.87258922E+03 E0= -.87258922E+03  d E =-.880456E-04
 BRION: g(F)=  0.108E-03 g(S)=  0.000E+00 retain N=  2 mean eig= 0.23
 eig:   0.314  0.150
 bond charge predicted
       N       E                     dE             d eps       ncg     rms          rms(c)
DAV:   1    -0.872589247719E+03   -0.26235E-04   -0.19336E-03   704   0.874E-02    0.124E-02
DAV:   2    -0.872589251313E+03   -0.35942E-05   -0.45734E-05   800   0.127E-02    0.461E-03
DAV:   3    -0.872589250893E+03    0.42025E-06   -0.10608E-06   520   0.276E-03
  87 F= -.87258925E+03 E0= -.87258925E+03  d E =-.293296E-04
 BRION: g(F)=  0.960E-04 g(S)=  0.000E+00 retain N=  1 mean eig= 0.24
 eig:   0.244
 bond charge predicted
       N       E                     dE             d eps       ncg     rms          rms(c)
DAV:   1    -0.872589306396E+03   -0.55083E-04   -0.14696E-02   704   0.240E-01    0.214E-02
DAV:   2    -0.872589332661E+03   -0.26266E-04   -0.29602E-04   784   0.311E-02    0.109E-02
DAV:   3    -0.872589331355E+03    0.13067E-05   -0.53347E-06   728   0.485E-03    0.693E-03
DAV:   4    -0.872589330439E+03    0.91601E-06   -0.49490E-06   736   0.617E-03
  88 F= -.87258933E+03 E0= -.87258933E+03  d E =-.795460E-04
 BRION: g(F)=  0.101E-03 g(S)=  0.000E+00 retain N=  2 mean eig= 0.33
 eig:   0.281  0.373
 bond charge predicted
       N       E                     dE             d eps       ncg     rms          rms(c)
DAV:   1    -0.872589358967E+03   -0.27612E-04   -0.28981E-03   704   0.107E-01    0.176E-02
DAV:   2    -0.872589364156E+03   -0.51885E-05   -0.70639E-05   816   0.158E-02    0.618E-03
DAV:   3    -0.872589363268E+03    0.88776E-06   -0.19288E-06   536   0.388E-03
  89 F= -.87258936E+03 E0= -.87258936E+03  d E =-.328290E-04
 BRION: g(F)=  0.104E-03 g(S)=  0.000E+00 retain N=  1 mean eig= 0.21
 eig:   0.205
 bond charge predicted
       N       E                     dE             d eps       ncg     rms          rms(c)
DAV:   1    -0.872589414139E+03   -0.49984E-04   -0.10316E-02   704   0.201E-01    0.188E-02
DAV:   2    -0.872589432239E+03   -0.18100E-04   -0.20648E-04   776   0.260E-02    0.935E-03
DAV:   3    -0.872589431208E+03    0.10316E-05   -0.37821E-06   664   0.427E-03    0.587E-03
DAV:   4    -0.872589430466E+03    0.74197E-06   -0.34548E-06   664   0.551E-03
  90 F= -.87258943E+03 E0= -.87258943E+03  d E =-.671980E-04
 BRION: g(F)=  0.110E-03 g(S)=  0.000E+00 retain N=  2 mean eig= 0.26
 eig:   0.184  0.326
 bond charge predicted
       N       E                     dE             d eps       ncg     rms          rms(c)
DAV:   1    -0.872589454145E+03   -0.22937E-04   -0.17014E-03   704   0.815E-02    0.139E-02
DAV:   2    -0.872589457106E+03   -0.29611E-05   -0.41804E-05   800   0.122E-02    0.495E-03
DAV:   3    -0.872589456536E+03    0.57070E-06   -0.12596E-06   528   0.317E-03
  91 F= -.87258946E+03 E0= -.87258946E+03  d E =-.260699E-04
 BRION: g(F)=  0.104E-03 g(S)=  0.000E+00 retain N=  1 mean eig= 0.22
 eig:   0.225
 bond charge predicted
       N       E                     dE             d eps       ncg     rms          rms(c)
DAV:   1    -0.872589496969E+03   -0.39863E-04   -0.14097E-02   704   0.236E-01    0.301E-02
DAV:   2    -0.872589522128E+03   -0.25158E-04   -0.30656E-04   808   0.324E-02    0.120E-02
DAV:   3    -0.872589519255E+03    0.28724E-05   -0.69894E-06   816   0.657E-03    0.713E-03
DAV:   4    -0.872589517546E+03    0.17090E-05   -0.54880E-06   752   0.720E-03    0.214E-03
DAV:   5    -0.872589517587E+03   -0.40498E-07   -0.21171E-06   552   0.340E-03
  92 F= -.87258952E+03 E0= -.87258952E+03  d E =-.610510E-04
 BRION: g(F)=  0.220E-03 g(S)=  0.000E+00 retain N=  2 mean eig= 0.22
 eig:   0.247  0.195
 bond charge predicted
       N       E                     dE             d eps       ncg     rms          rms(c)
DAV:   1    -0.872589547319E+03   -0.29773E-04   -0.19308E-03   704   0.861E-02    0.192E-02
DAV:   2    -0.872589550456E+03   -0.31369E-05   -0.53647E-05   824   0.141E-02    0.635E-03
DAV:   3    -0.872589549242E+03    0.12142E-05   -0.20068E-06   536   0.419E-03    0.349E-03
DAV:   4    -0.872589548753E+03    0.48939E-06   -0.21408E-06   576   0.413E-03
  93 F= -.87258955E+03 E0= -.87258955E+03  d E =-.311658E-04
 BRION: g(F)=  0.910E-04 g(S)=  0.000E+00 retain N=  1 mean eig= 0.22
 eig:   0.220
 bond charge predicted
       N       E                     dE             d eps       ncg     rms          rms(c)
DAV:   1    -0.872589596838E+03   -0.47596E-04   -0.16907E-02   704   0.258E-01    0.287E-02
DAV:   2    -0.872589627607E+03   -0.30769E-04   -0.36013E-04   800   0.348E-02    0.125E-02
DAV:   3    -0.872589624897E+03    0.27106E-05   -0.69974E-06   816   0.662E-03    0.766E-03
DAV:   4    -0.872589623097E+03    0.17996E-05   -0.71949E-06   752   0.850E-03    0.260E-03
DAV:   5    -0.872589623175E+03   -0.77533E-07   -0.27435E-06   624   0.369E-03
  94 F= -.87258962E+03 E0= -.87258962E+03  d E =-.744220E-04
 BRION: g(F)=  0.180E-03 g(S)=  0.000E+00 retain N=  2 mean eig= 0.21
 eig:   0.215  0.197
 bond charge predicted
       N       E                     dE             d eps       ncg     rms          rms(c)
DAV:   1    -0.872589650943E+03   -0.27846E-04   -0.15533E-03   704   0.773E-02    0.157E-02
DAV:   2    -0.872589653559E+03   -0.26168E-05   -0.41757E-05   816   0.123E-02    0.544E-03
DAV:   3    -0.872589652793E+03    0.76608E-06   -0.14673E-06   528   0.343E-03
  95 F= -.87258965E+03 E0= -.87258965E+03  d E =-.296188E-04
 BRION: g(F)=  0.877E-04 g(S)=  0.000E+00 retain N=  1 mean eig= 0.24
 eig:   0.243
 bond charge predicted
       N       E                     dE             d eps       ncg     rms          rms(c)
DAV:   1    -0.872589712103E+03   -0.58544E-04   -0.16699E-02   704   0.255E-01    0.208E-02
DAV:   2    -0.872589742053E+03   -0.29950E-04   -0.33287E-04   784   0.327E-02    0.116E-02
DAV:   3    -0.872589740776E+03    0.12773E-05   -0.56546E-06   728   0.488E-03    0.757E-03
DAV:   4    -0.872589739813E+03    0.96282E-06   -0.60322E-06   744   0.674E-03
  96 F= -.87258974E+03 E0= -.87258974E+03  d E =-.870200E-04
 BRION: g(F)=  0.782E-04 g(S)=  0.000E+00 retain N=  2 mean eig= 0.30
 eig:   0.079  0.522
 bond charge predicted
       N       E                     dE             d eps       ncg     rms          rms(c)
DAV:   1    -0.872589788086E+03   -0.47310E-04   -0.98153E-03   704   0.196E-01    0.219E-02
DAV:   2    -0.872589806336E+03   -0.18250E-04   -0.21390E-04   792   0.267E-02    0.999E-03
DAV:   3    -0.872589805183E+03    0.11526E-05   -0.46219E-06   744   0.495E-03    0.620E-03
DAV:   4    -0.872589804508E+03    0.67529E-06   -0.43682E-06   736   0.593E-03
  97 F= -.87258980E+03 E0= -.87258980E+03  d E =-.646943E-04
 BRION: g(F)=  0.115E-03 g(S)=  0.000E+00 retain N=  3 mean eig= 1.83
 eig:   5.033  0.419  0.046
 bond charge predicted
       N       E                     dE             d eps       ncg     rms          rms(c)
DAV:   1    -0.872589856718E+03   -0.51535E-04   -0.96137E-02   704   0.613E-01    0.531E-02
DAV:   2    -0.872590032049E+03   -0.17533E-03   -0.19445E-03   776   0.792E-02    0.284E-02
DAV:   3    -0.872590024694E+03    0.73551E-05   -0.33564E-05   832   0.120E-02    0.184E-02
DAV:   4    -0.872590020007E+03    0.46863E-05   -0.36959E-05   816   0.165E-02    0.651E-03
DAV:   5    -0.872590020338E+03   -0.33041E-06   -0.89418E-06   776   0.620E-03
  98 F= -.87259002E+03 E0= -.87259002E+03  d E =-.215830E-03
 BRION: g(F)=  0.116E-03 g(S)=  0.000E+00 retain N=  2 mean eig= 0.71
 eig:   0.238  1.176
 bond charge predicted
       N       E                     dE             d eps       ncg     rms          rms(c)
DAV:   1    -0.872589748364E+03    0.27164E-03   -0.61383E-02   704   0.490E-01    0.388E-02
DAV:   2    -0.872589859357E+03   -0.11099E-03   -0.12112E-03   776   0.624E-02    0.233E-02
DAV:   3    -0.872589854228E+03    0.51286E-05   -0.19383E-05   816   0.893E-03    0.152E-02
DAV:   4    -0.872589850823E+03    0.34060E-05   -0.24113E-05   792   0.130E-02    0.479E-03
DAV:   5    -0.872589851014E+03   -0.19193E-06   -0.58483E-06   720   0.504E-03
  99 F= -.87258985E+03 E0= -.87258985E+03  d E =0.169323E-03
 BRION: g(F)=  0.990E-04 g(S)=  0.000E+00 retain N=  3 mean eig= 2.22
 eig:   5.669  0.491  0.491
 bond charge predicted
       N       E                     dE             d eps       ncg     rms          rms(c)
DAV:   1    -0.872589849758E+03    0.10642E-05   -0.15919E-04   704   0.247E-02    0.676E-03
DAV:   2    -0.872589849933E+03   -0.17451E-06   -0.61728E-06   784   0.511E-03
 100 F= -.87258985E+03 E0= -.87258985E+03  d E =0.108164E-05
 BRION: g(F)=  0.125E-03 g(S)=  0.000E+00 retain N=  3 mean eig= 1.18
 eig:   2.472  0.527  0.527
 bond charge predicted
       N       E                     dE             d eps       ncg     rms          rms(c)
DAV:   1    -0.872589910520E+03   -0.60762E-04   -0.26198E-02   704   0.321E-01    0.336E-02
DAV:   2    -0.872589959119E+03   -0.48599E-04   -0.55328E-04   784   0.429E-02    0.155E-02
DAV:   3    -0.872589955638E+03    0.34812E-05   -0.10405E-05   824   0.752E-03    0.962E-03
DAV:   4    -0.872589953334E+03    0.23032E-05   -0.10309E-05   784   0.958E-03    0.319E-03
DAV:   5    -0.872589953428E+03   -0.93940E-07   -0.33843E-06   648   0.408E-03
 101 F= -.87258995E+03 E0= -.87258995E+03  d E =-.103495E-03
 BRION: g(F)=  0.148E-03 g(S)=  0.000E+00 retain N=  3 mean eig= 1.26
 eig:   3.192  0.530  0.063
 bond charge predicted
       N       E                     dE             d eps       ncg     rms          rms(c)
DAV:   1    -0.872589993601E+03   -0.40267E-04   -0.77128E-03   704   0.174E-01    0.266E-02
DAV:   2    -0.872590008544E+03   -0.14943E-04   -0.18787E-04   816   0.255E-02    0.100E-02
DAV:   3    -0.872590006586E+03    0.19580E-05   -0.47431E-06   784   0.566E-03    0.586E-03
DAV:   4    -0.872590005638E+03    0.94798E-06   -0.43030E-06   752   0.614E-03
 102 F= -.87259001E+03 E0= -.87259001E+03  d E =-.522096E-04
 BRION: g(F)=  0.154E-03 g(S)=  0.000E+00 retain N=  2 mean eig= 0.24
 eig:   0.232  0.254
 bond charge predicted
       N       E                     dE             d eps       ncg     rms          rms(c)
DAV:   1    -0.872590011583E+03   -0.49976E-05   -0.12496E-03   704   0.666E-02    0.185E-02
DAV:   2    -0.872590013108E+03   -0.15242E-05   -0.37371E-05   816   0.116E-02    0.582E-03
DAV:   3    -0.872590012019E+03    0.10884E-05   -0.16796E-06   552   0.372E-03    0.323E-03
DAV:   4    -0.872590011603E+03    0.41643E-06   -0.18126E-06   560   0.349E-03
 103 F= -.87259001E+03 E0= -.87259001E+03  d E =-.596495E-05
 BRION: g(F)=  0.990E-04 g(S)=  0.000E+00 retain N=  2 mean eig= 1.03
 eig:   0.241  1.827
 bond charge predicted
       N       E                     dE             d eps       ncg     rms          rms(c)
DAV:   1    -0.872590059806E+03   -0.47787E-04   -0.12892E-02   704   0.225E-01    0.236E-02
DAV:   2    -0.872590083864E+03   -0.24058E-04   -0.27484E-04   792   0.302E-02    0.111E-02
DAV:   3    -0.872590082157E+03    0.17072E-05   -0.50919E-06   720   0.525E-03    0.687E-03
DAV:   4    -0.872590081107E+03    0.10493E-05   -0.57208E-06   752   0.678E-03    0.231E-03
DAV:   5    -0.872590081151E+03   -0.44129E-07   -0.15675E-06   480   0.278E-03
 104 F= -.87259008E+03 E0= -.87259008E+03  d E =-.695485E-04
 BRION: g(F)=  0.134E-03 g(S)=  0.000E+00 retain N=  3 mean eig= 0.78
 eig:   1.838  0.227  0.267
 bond charge predicted
       N       E                     dE             d eps       ncg     rms          rms(c)
DAV:   1    -0.872590103278E+03   -0.22171E-04   -0.12723E-03   704   0.711E-02    0.133E-02
DAV:   2    -0.872590105678E+03   -0.23999E-05   -0.34479E-05   824   0.112E-02    0.476E-03
DAV:   3    -0.872590105134E+03    0.54448E-06   -0.10569E-06   504   0.291E-03
 105 F= -.87259011E+03 E0= -.87259011E+03  d E =-.239824E-04
 BRION: g(F)=  0.830E-04 g(S)=  0.000E+00 retain N=  1 mean eig= 0.24
 eig:   0.243
 bond charge predicted
       N       E                     dE             d eps       ncg     rms          rms(c)
DAV:   1    -0.872590157728E+03   -0.52050E-04   -0.15226E-02   704   0.244E-01    0.225E-02
DAV:   2    -0.872590184864E+03   -0.27136E-04   -0.30666E-04   784   0.317E-02    0.113E-02
DAV:   3    -0.872590183372E+03    0.14922E-05   -0.55880E-06   744   0.503E-03    0.717E-03
DAV:   4    -0.872590182379E+03    0.99231E-06   -0.54431E-06   760   0.640E-03
 106 F= -.87259018E+03 E0= -.87259018E+03  d E =-.772456E-04
 BRION: g(F)=  0.102E-03 g(S)=  0.000E+00 retain N=  2 mean eig= 0.23
 eig:   0.364  0.099
 bond charge predicted
       N       E                     dE             d eps       ncg     rms          rms(c)
DAV:   1    -0.872590206175E+03   -0.22804E-04   -0.18970E-03   704   0.852E-02    0.161E-02
DAV:   2    -0.872590209201E+03   -0.30258E-05   -0.47320E-05   816   0.129E-02    0.545E-03
DAV:   3    -0.872590208430E+03    0.77116E-06   -0.15518E-06   536   0.340E-03
 107 F= -.87259021E+03 E0= -.87259021E+03  d E =-.260506E-04
 BRION: g(F)=  0.868E-04 g(S)=  0.000E+00 retain N=  1 mean eig= 0.19
 eig:   0.194
 bond charge predicted
       N       E                     dE             d eps       ncg     rms          rms(c)
DAV:   1    -0.872590257558E+03   -0.48357E-04   -0.10467E-02   704   0.202E-01    0.184E-02
DAV:   2    -0.872590276123E+03   -0.18565E-04   -0.20916E-04   776   0.261E-02    0.949E-03
DAV:   3    -0.872590275161E+03    0.96170E-06   -0.36975E-06   656   0.413E-03
 108 F= -.87259028E+03 E0= -.87259028E+03  d E =-.667311E-04
 BRION: g(F)=  0.993E-04 g(S)=  0.000E+00 retain N=  2 mean eig= 0.17
 eig:   0.282  0.050
 bond charge predicted
       N       E                     dE             d eps       ncg     rms          rms(c)
DAV:   1    -0.872590295721E+03   -0.19598E-04   -0.11168E-03   704   0.660E-02    0.987E-03
DAV:   2    -0.872590297415E+03   -0.16936E-05   -0.22853E-05   800   0.895E-03    0.398E-03
DAV:   3    -0.872590297182E+03    0.23247E-06   -0.85188E-07   472   0.237E-03
 109 F= -.87259030E+03 E0= -.87259030E+03  d E =-.220213E-04
 BRION: g(F)=  0.870E-04 g(S)=  0.000E+00 retain N=  1 mean eig= 0.27
 eig:   0.272
 bond charge predicted
       N       E                     dE             d eps       ncg     rms          rms(c)
DAV:   1    -0.872590339168E+03   -0.41753E-04   -0.15327E-02   704   0.245E-01    0.302E-02
DAV:   2    -0.872590366265E+03   -0.27096E-04   -0.32515E-04   800   0.331E-02    0.124E-02
DAV:   3    -0.872590363465E+03    0.27993E-05   -0.70933E-06   824   0.634E-03    0.745E-03
DAV:   4    -0.872590361953E+03    0.15119E-05   -0.63842E-06   752   0.708E-03    0.232E-03
DAV:   5    -0.872590362006E+03   -0.52329E-07   -0.19485E-06   536   0.314E-03
 110 F= -.87259036E+03 E0= -.87259036E+03  d E =-.648235E-04
 BRION: g(F)=  0.200E-03 g(S)=  0.000E+00 retain N=  2 mean eig= 0.24
 eig:   0.302  0.187
 bond charge predicted
       N       E                     dE             d eps       ncg     rms          rms(c)
DAV:   1    -0.872590389485E+03   -0.27532E-04   -0.16882E-03   704   0.788E-02    0.181E-02
DAV:   2    -0.872590391903E+03   -0.24177E-05   -0.45459E-05   816   0.127E-02    0.589E-03
DAV:   3    -0.872590390819E+03    0.10840E-05   -0.17716E-06   544   0.371E-03    0.326E-03
DAV:   4    -0.872590390395E+03    0.42404E-06   -0.18722E-06   568   0.355E-03
 111 F= -.87259039E+03 E0= -.87259039E+03  d E =-.283892E-04
 BRION: g(F)=  0.771E-04 g(S)=  0.000E+00 retain N=  1 mean eig= 0.21
 eig:   0.208
 bond charge predicted
[...]
 464 F= -.87260070E+03 E0= -.87260070E+03  d E =-.740046E-05
 BRION: g(F)=  0.351E-04 g(S)=  0.000E+00 retain N=  3 mean eig= 2.52
 eig:   7.163  0.311  0.093
 bond charge predicted
       N       E                     dE             d eps       ncg     rms          rms(c)
DAV:   1    -0.872600700207E+03   -0.39085E-05   -0.17197E-05   680   0.761E-03    0.158E-03
DAV:   2    -0.872600700227E+03   -0.20111E-07   -0.29966E-07   376   0.105E-03
 465 F= -.87260070E+03 E0= -.87260070E+03  d E =-.384699E-05
 BRION: g(F)=  0.352E-04 g(S)=  0.000E+00 retain N=  2 mean eig= 0.20
 eig:   0.339  0.054
 bond charge predicted
       N       E                     dE             d eps       ncg     rms          rms(c)
DAV:   1    -0.872600730123E+03   -0.29916E-04   -0.11753E-03   712   0.628E-02    0.867E-03
DAV:   2    -0.872600731721E+03   -0.15983E-05   -0.18659E-05   776   0.768E-03    0.506E-03
DAV:   3    -0.872600731593E+03    0.12833E-06   -0.38289E-07   488   0.157E-03
 466 F= -.87260073E+03 E0= -.87260073E+03  d E =-.313660E-04
 BRION: g(F)=  0.373E-04 g(S)=  0.000E+00 retain N=  3 mean eig= 2.60
 eig:   7.169  0.354  0.268
 bond charge predicted
       N       E                     dE             d eps       ncg     rms          rms(c)
DAV:   1    -0.872600726803E+03    0.49185E-05   -0.32772E-04   704   0.359E-02    0.659E-03
DAV:   2    -0.872600727384E+03   -0.58149E-06   -0.83285E-06   832   0.529E-03
 467 F= -.87260073E+03 E0= -.87260073E+03  d E =0.420868E-05
 BRION: g(F)=  0.433E-04 g(S)=  0.000E+00 retain N=  2 mean eig= 0.24
 eig:   0.243  0.243
 bond charge predicted
       N       E                     dE             d eps       ncg     rms          rms(c)
DAV:   1    -0.872600739548E+03   -0.12746E-04   -0.67330E-04   704   0.509E-02    0.818E-03
DAV:   2    -0.872600741006E+03   -0.14579E-05   -0.16317E-05   792   0.721E-03    0.280E-03
DAV:   3    -0.872600740894E+03    0.11267E-06   -0.28332E-07   400   0.139E-03
 468 F= -.87260074E+03 E0= -.87260074E+03  d E =-.135095E-04
 BRION: g(F)=  0.368E-04 g(S)=  0.000E+00 retain N=  3 mean eig= 1.23
 eig:   2.959  0.298  0.436
 bond charge predicted
       N       E                     dE             d eps       ncg     rms          rms(c)
DAV:   1    -0.872600749510E+03   -0.85038E-05   -0.10185E-04   680   0.184E-02    0.318E-03
DAV:   2    -0.872600749634E+03   -0.12374E-06   -0.17365E-06   536   0.248E-03
 469 F= -.87260075E+03 E0= -.87260075E+03  d E =-.874017E-05
 BRION: g(F)=  0.345E-04 g(S)=  0.000E+00 retain N=  3 mean eig= 1.21
 eig:   2.934  0.416  0.271
 bond charge predicted
       N       E                     dE             d eps       ncg     rms          rms(c)
DAV:   1    -0.872600784838E+03   -0.35328E-04   -0.15763E-03   712   0.722E-02    0.100E-02
DAV:   2    -0.872600786914E+03   -0.20753E-05   -0.24150E-05   768   0.860E-03    0.605E-03
DAV:   3    -0.872600786754E+03    0.15921E-06   -0.47214E-07   472   0.163E-03
 470 F= -.87260079E+03 E0= -.87260079E+03  d E =-.371207E-04
 BRION: g(F)=  0.359E-04 g(S)=  0.000E+00 retain N=  3 mean eig= 0.52
 eig:   0.926  0.314  0.314
 bond charge predicted
       N       E                     dE             d eps       ncg     rms          rms(c)
DAV:   1    -0.872600798992E+03   -0.12078E-04   -0.17015E-04   680   0.235E-02    0.334E-03
DAV:   2    -0.872600799181E+03   -0.18906E-06   -0.22770E-06   584   0.273E-03
 471 F= -.87260080E+03 E0= -.87260080E+03  d E =-.124262E-04
 BRION: g(F)=  0.349E-04 g(S)=  0.000E+00 retain N=  4 mean eig= 0.60
 eig:   0.689  0.689  0.511  0.511
 bond charge predicted
       N       E                     dE             d eps       ncg     rms          rms(c)
DAV:   1    -0.872600855395E+03   -0.56404E-04   -0.41421E-03   704   0.116E-01    0.168E-02
DAV:   2    -0.872600860759E+03   -0.53632E-05   -0.63091E-05   768   0.140E-02    0.985E-03
DAV:   3    -0.872600860298E+03    0.46026E-06   -0.13007E-06   576   0.285E-03
 472 F= -.87260086E+03 E0= -.87260086E+03  d E =-.611178E-04
 BRION: g(F)=  0.412E-04 g(S)=  0.000E+00 retain N=  5 mean eig= 1.63
 eig:   3.503  3.503  0.367  0.367  0.403
 bond charge predicted
       N       E                     dE             d eps       ncg     rms          rms(c)
DAV:   1    -0.872601043115E+03   -0.18236E-03   -0.91356E-02   712   0.542E-01    0.729E-02
DAV:   2    -0.872601159492E+03   -0.11638E-03   -0.13377E-03   768   0.638E-02    0.439E-02
DAV:   3    -0.872601151981E+03    0.75105E-05   -0.29387E-05   824   0.116E-02    0.209E-02
DAV:   4    -0.872601151867E+03    0.11409E-06   -0.16838E-05   792   0.929E-03    0.450E-03
DAV:   5    -0.872601151709E+03    0.15808E-06   -0.23326E-06   600   0.355E-03
 473 F= -.87260115E+03 E0= -.87260115E+03  d E =-.291411E-03
 BRION: g(F)=  0.363E-04 g(S)=  0.000E+00 retain N=  6 mean eig= 2.76
 eig:   7.209  7.209  0.558  0.558  0.498  0.498
 bond charge predicted
       N       E                     dE             d eps       ncg     rms          rms(c)
DAV:   1    -0.872601224109E+03   -0.72242E-04   -0.67430E-03   704   0.146E-01    0.204E-02
DAV:   2    -0.872601233223E+03   -0.91138E-05   -0.10216E-04   768   0.175E-02    0.120E-02
DAV:   3    -0.872601232797E+03    0.42530E-06   -0.19323E-06   584   0.338E-03
 474 F= -.87260123E+03 E0= -.87260123E+03  d E =-.810884E-04
 BRION: g(F)=  0.373E-04 g(S)=  0.000E+00 retain N=  7 mean eig= 2.75
 eig:   7.594  7.594  1.792  0.517  0.517  0.621  0.621
 bond charge predicted
       N       E                     dE             d eps       ncg     rms          rms(c)
DAV:   1    -0.872601166902E+03    0.66321E-04   -0.40454E-03   704   0.114E-01    0.153E-02
DAV:   2    -0.872601172317E+03   -0.54149E-05   -0.62622E-05   768   0.139E-02    0.958E-03
DAV:   3    -0.872601171790E+03    0.52663E-06   -0.12917E-06   560   0.293E-03
 475 F= -.87260117E+03 E0= -.87260117E+03  d E =0.610074E-04
 BRION: g(F)=  0.379E-04 g(S)=  0.000E+00 retain N=  8 mean eig= 2.71
 eig:   6.320  6.320  5.167  1.115  1.115  0.494  0.494  0.627
 bond charge predicted
       N       E                     dE             d eps       ncg     rms          rms(c)
DAV:   1    -0.872601159954E+03    0.12363E-04   -0.17283E-04   712   0.243E-02    0.389E-03
DAV:   2    -0.872601160107E+03   -0.15283E-06   -0.22688E-06   608   0.289E-03
 476 F= -.87260116E+03 E0= -.87260116E+03  d E =0.116834E-04
 BRION: g(F)=  0.395E-04 g(S)=  0.000E+00 retain N=  6 mean eig= 2.50
 eig:   7.389  2.242  2.242  1.452  1.452  0.241
 bond charge predicted
       N       E                     dE             d eps       ncg     rms          rms(c)
DAV:   1    -0.872600980215E+03    0.17974E-03   -0.25265E-02   704   0.289E-01    0.387E-02
DAV:   2    -0.872601013624E+03   -0.33409E-04   -0.38491E-04   768   0.344E-02    0.231E-02
DAV:   3    -0.872601011248E+03    0.23757E-05   -0.82166E-06   776   0.637E-03    0.114E-02
DAV:   4    -0.872601011160E+03    0.88767E-07   -0.54470E-06   768   0.541E-03
 477 F= -.87260101E+03 E0= -.87260101E+03  d E =0.148947E-03
 BRION: g(F)=  0.562E-04 g(S)=  0.000E+00 retain N=  7 mean eig= 2.48
 eig:   7.283  3.112  3.112  1.420  1.420  0.779  0.203
 bond charge predicted
       N       E                     dE             d eps       ncg     rms          rms(c)
DAV:   1    -0.872601044719E+03   -0.33471E-04   -0.12939E-03   704   0.656E-02    0.948E-03
DAV:   2    -0.872601046251E+03   -0.15322E-05   -0.19928E-05   776   0.812E-03    0.546E-03
DAV:   3    -0.872601046005E+03    0.24638E-06   -0.51193E-07   504   0.174E-03
 478 F= -.87260105E+03 E0= -.87260105E+03  d E =-.348453E-04
 BRION: g(F)=  0.410E-04 g(S)=  0.000E+00 retain N=  2 mean eig= 3.98
 eig:   0.890  7.067
 bond charge predicted
       N       E                     dE             d eps       ncg     rms          rms(c)
DAV:   1    -0.872601139242E+03   -0.92991E-04   -0.14793E-02   704   0.220E-01    0.326E-02
DAV:   2    -0.872601158951E+03   -0.19709E-04   -0.23292E-04   768   0.270E-02    0.178E-02
DAV:   3    -0.872601157151E+03    0.18004E-05   -0.52913E-06   744   0.569E-03    0.950E-03
DAV:   4    -0.872601156915E+03    0.23582E-06   -0.45153E-06   760   0.561E-03
 479 F= -.87260116E+03 E0= -.87260116E+03  d E =-.110910E-03
 BRION: g(F)=  0.682E-04 g(S)=  0.000E+00 retain N=  3 mean eig= 2.94
 eig:   7.646  0.878  0.291
 bond charge predicted
       N       E                     dE             d eps       ncg     rms          rms(c)
DAV:   1    -0.872601157452E+03   -0.30110E-06   -0.69795E-04   704   0.519E-02    0.122E-02
DAV:   2    -0.872601158375E+03   -0.92312E-06   -0.18402E-05   824   0.824E-03    0.400E-03
DAV:   3    -0.872601157913E+03    0.46193E-06   -0.76710E-07   488   0.261E-03
 480 F= -.87260116E+03 E0= -.87260116E+03  d E =-.998109E-06
 BRION: g(F)=  0.379E-04 g(S)=  0.000E+00 retain N=  1 mean eig= 0.24
 eig:   0.242
 bond charge predicted
       N       E                     dE             d eps       ncg     rms          rms(c)
DAV:   1    -0.872601189647E+03   -0.31272E-04   -0.16191E-03   704   0.748E-02    0.123E-02
DAV:   2    -0.872601192129E+03   -0.24827E-05   -0.31053E-05   808   0.101E-02    0.618E-03
DAV:   3    -0.872601191733E+03    0.39690E-06   -0.70967E-07   496   0.218E-03
 481 F= -.87260119E+03 E0= -.87260119E+03  d E =-.338194E-04
 BRION: g(F)=  0.473E-04 g(S)=  0.000E+00 retain N=  2 mean eig= 0.29
 eig:   0.244  0.327
 bond charge predicted
       N       E                     dE             d eps       ncg     rms          rms(c)
DAV:   1    -0.872601203367E+03   -0.11238E-04   -0.24680E-04   704   0.296E-02    0.692E-03
DAV:   2    -0.872601203752E+03   -0.38406E-06   -0.66695E-06   736   0.483E-03
 482 F= -.87260120E+03 E0= -.87260120E+03  d E =-.120190E-04
 BRION: g(F)=  0.354E-04 g(S)=  0.000E+00 retain N=  1 mean eig= 0.28
 eig:   0.278
 bond charge predicted
       N       E                     dE             d eps       ncg     rms          rms(c)
DAV:   1    -0.872601235533E+03   -0.32166E-04   -0.14382E-03   704   0.694E-02    0.126E-02
DAV:   2    -0.872601237563E+03   -0.20297E-05   -0.25967E-05   784   0.924E-03    0.632E-03
DAV:   3    -0.872601237253E+03    0.31028E-06   -0.65549E-07   512   0.241E-03
 483 F= -.87260124E+03 E0= -.87260124E+03  d E =-.335012E-04
 BRION: g(F)=  0.435E-04 g(S)=  0.000E+00 retain N=  2 mean eig= 0.27
 eig:   0.269  0.269
 bond charge predicted
       N       E                     dE             d eps       ncg     rms          rms(c)
DAV:   1    -0.872601247871E+03   -0.10308E-04   -0.19575E-04   704   0.268E-02    0.611E-03
DAV:   2    -0.872601248150E+03   -0.27836E-06   -0.51279E-06   688   0.427E-03
 484 F= -.87260125E+03 E0= -.87260125E+03  d E =-.108971E-04
 BRION: g(F)=  0.345E-04 g(S)=  0.000E+00 retain N=  1 mean eig= 0.30
 eig:   0.305
 bond charge predicted
       N       E                     dE             d eps       ncg     rms          rms(c)
DAV:   1    -0.872601282838E+03   -0.34966E-04   -0.13916E-03   704   0.667E-02    0.100E-02
DAV:   2    -0.872601284498E+03   -0.16599E-05   -0.20513E-05   776   0.795E-03    0.602E-03
DAV:   3    -0.872601284304E+03    0.19337E-06   -0.48289E-07   496   0.176E-03
 485 F= -.87260128E+03 E0= -.87260128E+03  d E =-.361546E-04
 BRION: g(F)=  0.354E-04 g(S)=  0.000E+00 retain N=  2 mean eig= 0.31
 eig:   0.326  0.286
 bond charge predicted
       N       E                     dE             d eps       ncg     rms          rms(c)
DAV:   1    -0.872601287709E+03   -0.32116E-05   -0.10626E-05   672   0.578E-03    0.113E-03
DAV:   2    -0.872601287715E+03   -0.60827E-08   -0.15172E-07   376   0.800E-04
 486 F= -.87260129E+03 E0= -.87260129E+03  d E =-.341102E-05
 BRION: g(F)=  0.353E-04 g(S)=  0.000E+00 retain N=  3 mean eig= 1.38
 eig:   3.534  0.263  0.356
 bond charge predicted
       N       E                     dE             d eps       ncg     rms          rms(c)
DAV:   1    -0.872601273114E+03    0.14595E-04   -0.21922E-04   704   0.268E-02    0.365E-03
DAV:   2    -0.872601273396E+03   -0.28160E-06   -0.33165E-06   640   0.329E-03
 487 F= -.87260127E+03 E0= -.87260127E+03  d E =0.143194E-04
 BRION: g(F)=  0.378E-04 g(S)=  0.000E+00 retain N=  4 mean eig= 1.19
 eig:   3.067  0.936  0.376  0.376
 bond charge predicted
       N       E                     dE             d eps       ncg     rms          rms(c)
DAV:   1    -0.872601327646E+03   -0.54532E-04   -0.37017E-03   704   0.109E-01    0.143E-02
DAV:   2    -0.872601332452E+03   -0.48055E-05   -0.54952E-05   768   0.130E-02    0.840E-03
DAV:   3    -0.872601332133E+03    0.31874E-06   -0.10980E-06   552   0.243E-03
 488 F= -.87260133E+03 E0= -.87260133E+03  d E =-.587367E-04
 BRION: g(F)=  0.391E-04 g(S)=  0.000E+00 retain N=  5 mean eig= 2.40
 eig:   5.318  5.318  0.338  0.501  0.501
 bond charge predicted
       N       E                     dE             d eps       ncg     rms          rms(c)
DAV:   1    -0.872601520525E+03   -0.18807E-03   -0.73512E-02   704   0.479E-01    0.680E-02
DAV:   2    -0.872601610072E+03   -0.89547E-04   -0.10382E-03   768   0.558E-02    0.407E-02
DAV:   3    -0.872601603787E+03    0.62846E-05   -0.24161E-05   824   0.108E-02    0.187E-02
DAV:   4    -0.872601603760E+03    0.27612E-07   -0.12759E-05   784   0.811E-03    0.400E-03
DAV:   5    -0.872601603622E+03    0.13765E-06   -0.17300E-06   560   0.311E-03
 489 F= -.87260160E+03 E0= -.87260160E+03  d E =-.271489E-03
 BRION: g(F)=  0.447E-04 g(S)=  0.000E+00 retain N=  6 mean eig= 2.62
 eig:   6.351  6.351  1.167  1.167  0.347  0.347
 bond charge predicted
       N       E                     dE             d eps       ncg     rms          rms(c)
DAV:   1    -0.872601739668E+03   -0.13591E-03   -0.27507E-02   704   0.291E-01    0.417E-02
DAV:   2    -0.872601773999E+03   -0.34332E-04   -0.39305E-04   768   0.342E-02    0.250E-02
DAV:   3    -0.872601771884E+03    0.21148E-05   -0.86870E-06   768   0.667E-03    0.114E-02
DAV:   4    -0.872601772046E+03   -0.16152E-06   -0.50523E-06   744   0.488E-03
 490 F= -.87260177E+03 E0= -.87260177E+03  d E =-.168424E-03
 BRION: g(F)=  0.451E-04 g(S)=  0.000E+00 retain N=  7 mean eig= 2.57
 eig:   6.171  6.171  2.071  2.071  0.411  0.411  0.711
 bond charge predicted
       N       E                     dE             d eps       ncg     rms          rms(c)
DAV:   1    -0.872601734604E+03    0.37280E-04   -0.12007E-03   704   0.599E-02    0.877E-03
DAV:   2    -0.872601735831E+03   -0.12267E-05   -0.15510E-05   776   0.680E-03    0.558E-03
DAV:   3    -0.872601735653E+03    0.17785E-06   -0.43876E-07   504   0.154E-03
 491 F= -.87260174E+03 E0= -.87260174E+03  d E =0.363930E-04
 BRION: g(F)=  0.468E-04 g(S)=  0.000E+00 retain N=  8 mean eig= 2.54
 eig:   6.207  6.207  2.801  2.801  0.940  0.427  0.427  0.516
 bond charge predicted
       N       E                     dE             d eps       ncg     rms          rms(c)
DAV:   1    -0.872601632460E+03    0.10337E-03   -0.95049E-03   704   0.176E-01    0.233E-02
DAV:   2    -0.872601644824E+03   -0.12365E-04   -0.14151E-04   768   0.207E-02    0.139E-02
DAV:   3    -0.872601644036E+03    0.78792E-06   -0.29840E-06   664   0.379E-03
 492 F= -.87260164E+03 E0= -.87260164E+03  d E =0.916166E-04
 BRION: g(F)=  0.452E-04 g(S)=  0.000E+00 retain N=  9 mean eig= 2.78
 eig:   6.628  6.628  3.465  3.465  2.685  0.375  0.375  0.769  0.642
 bond charge predicted
       N       E                     dE             d eps       ncg     rms          rms(c)
DAV:   1    -0.872601664487E+03   -0.19662E-04   -0.59506E-04   704   0.451E-02    0.546E-03
DAV:   2    -0.872601665414E+03   -0.92694E-06   -0.10899E-05   760   0.589E-03    0.374E-03
DAV:   3    -0.872601665295E+03    0.11834E-06   -0.23413E-07   384   0.134E-03
 493 F= -.87260167E+03 E0= -.87260167E+03  d E =-.212588E-04
 BRION: g(F)=  0.457E-04 g(S)=  0.000E+00 retain N= 10 mean eig= 2.85
 eig:   7.048  5.374  5.374  4.272  2.950  1.114  1.114  0.288  0.288  0.651
 bond charge predicted
       N       E                     dE             d eps       ncg     rms          rms(c)
DAV:   1    -0.872601658305E+03    0.71085E-05   -0.50268E-05   672   0.128E-02    0.214E-03
DAV:   2    -0.872601658378E+03   -0.73218E-07   -0.95957E-07   456   0.195E-03
 494 F= -.87260166E+03 E0= -.87260166E+03  d E =0.691698E-05
 BRION: g(F)=  0.468E-04 g(S)=  0.000E+00 retain N=  9 mean eig= 2.08
 eig:   4.003  2.919  2.919  2.535  2.535  1.206  0.913  0.913  0.737
 bond charge predicted
       N       E                     dE             d eps       ncg     rms          rms(c)
DAV:   1    -0.872601322150E+03    0.33615E-03   -0.68697E-02   704   0.466E-01    0.647E-02
DAV:   2    -0.872601407380E+03   -0.85230E-04   -0.98773E-04   768   0.546E-02    0.392E-02
DAV:   3    -0.872601401123E+03    0.62574E-05   -0.22736E-05   824   0.105E-02    0.181E-02
DAV:   4    -0.872601401091E+03    0.31578E-07   -0.12759E-05   784   0.797E-03    0.408E-03
DAV:   5    -0.872601400931E+03    0.15985E-06   -0.16804E-06   560   0.308E-03
 495 F= -.87260140E+03 E0= -.87260140E+03  d E =0.257447E-03
 BRION: g(F)=  0.393E-04 g(S)=  0.000E+00 retain N= 10 mean eig= 2.61
 eig:   5.343  5.343  3.760  3.760  2.207  2.207  0.895  0.895  0.781  0.954
 bond charge predicted
       N       E                     dE             d eps       ncg     rms          rms(c)
DAV:   1    -0.872601408768E+03   -0.76767E-05   -0.74066E-05   688   0.156E-02    0.264E-03
DAV:   2    -0.872601408826E+03   -0.57706E-07   -0.10970E-06   520   0.202E-03
 496 F= -.87260141E+03 E0= -.87260141E+03  d E =-.789423E-05
 BRION: g(F)=  0.368E-04 g(S)=  0.000E+00 retain N=  7 mean eig= 2.64
 eig:   6.358  5.079  2.817  1.409  0.810  0.810  1.178
 bond charge predicted
       N       E                     dE             d eps       ncg     rms          rms(c)
DAV:   1    -0.872601485017E+03   -0.76249E-04   -0.57051E-03   704   0.127E-01    0.211E-02
DAV:   2    -0.872601491271E+03   -0.62546E-05   -0.75236E-05   768   0.147E-02    0.127E-02
DAV:   3    -0.872601490669E+03    0.60185E-06   -0.19158E-06   600   0.336E-03
 497 F= -.87260149E+03 E0= -.87260149E+03  d E =-.818437E-04
 BRION: g(F)=  0.424E-04 g(S)=  0.000E+00 retain N=  7 mean eig= 2.91
 eig:   7.597  6.815  2.402  1.161  0.985  0.985  0.405
 bond charge predicted
       N       E                     dE             d eps       ncg     rms          rms(c)
DAV:   1    -0.872601469641E+03    0.21630E-04   -0.66596E-04   704   0.485E-02    0.778E-03
DAV:   2    -0.872601470668E+03   -0.10264E-05   -0.13408E-05   808   0.674E-03    0.403E-03
DAV:   3    -0.872601470467E+03    0.20046E-06   -0.34243E-07   464   0.174E-03
 498 F= -.87260147E+03 E0= -.87260147E+03  d E =0.202021E-04
 BRION: g(F)=  0.422E-04 g(S)=  0.000E+00 retain N=  7 mean eig= 2.47
 eig:   5.844  4.902  2.612  0.813  1.493  0.917  0.715
 bond charge predicted
       N       E                     dE             d eps       ncg     rms          rms(c)
DAV:   1    -0.872601489330E+03   -0.18663E-04   -0.61550E-04   704   0.461E-02    0.680E-03
DAV:   2    -0.872601490283E+03   -0.95314E-06   -0.11472E-05   800   0.609E-03    0.359E-03
DAV:   3    -0.872601490189E+03    0.94362E-07   -0.26568E-07   432   0.133E-03
 499 F= -.87260149E+03 E0= -.87260149E+03  d E =-.197218E-04
 BRION: g(F)=  0.415E-04 g(S)=  0.000E+00 retain N=  5 mean eig= 2.18
 eig:   5.641  2.931  0.189  1.247  0.907
 bond charge predicted
       N       E                     dE             d eps       ncg     rms          rms(c)
DAV:   1    -0.872601305804E+03    0.18448E-03   -0.24400E-02   704   0.275E-01    0.392E-02
DAV:   2    -0.872601336163E+03   -0.30359E-04   -0.35305E-04   768   0.325E-02    0.237E-02
DAV:   3    -0.872601333771E+03    0.23918E-05   -0.81252E-06   776   0.644E-03    0.112E-02
DAV:   4    -0.872601333753E+03    0.18095E-07   -0.51505E-06   752   0.494E-03
 500 F= -.87260133E+03 E0= -.87260133E+03  d E =0.156436E-03
 BRION: g(F)=  0.514E-04 g(S)=  0.000E+00 retain N=  4 mean eig= 1.41
 eig:   4.169  0.083  0.697  0.697
Running "mpirun -np 48 vasp"
