unknown system                          
           1
    13.729572   -0.004625   -0.001411
    -6.868739   11.890915    0.001820
    -0.001511    0.001307   14.890378
   Al   C    H    O    Si
   1   1   3  72  35
Direct configuration=     1
   0.56230525  0.67043267  0.55752623
   0.73188315  0.66831450  0.67436637
   0.75431032  0.66464652  0.60462167
   0.72168769  0.59523751  0.71201469
   0.79566221  0.74644072  0.70586832
   0.01611228  0.33229291  0.83277703
   0.20843151  0.42230658  0.53339139
   0.54693618  0.09577937  0.20052332
   0.87404833  0.75835882  0.86619963
   0.45104191  0.54493080  0.78648720
   0.12152155  0.87838196  0.13098806
   0.08786547  0.54527097  0.79866572
   0.41164025  0.20844617  0.45718312
   0.76354286  0.88221131  0.13941349
   0.21447686  0.78614185  0.53874033
   0.90060263  0.10051104  0.12493114
   0.23723596  0.11977240  0.86236127
   0.87467416  0.44066433  0.44720242
   0.43436289  0.86967728  0.54349892
   0.98269026  0.31744280  0.16423817
   0.64858112  0.01234199  0.50334700
   0.00383215  0.65464674  0.49453816
   0.33288946  0.31397973  0.16358782
   0.98562522  0.66403261  0.16088540
   0.35745769  0.36146874  0.49855483
   0.68456282  0.01840451  0.17016514
   0.65819632  0.97374258  0.84027020
   0.99598003  0.34886115  0.50112171
   0.78110351  0.22309800  0.46524577
   0.33515745  0.01917765  0.16156106
   0.91048827  0.45440514  0.20673737
   0.31263251  0.33681671  0.83802120
   0.44461165  0.89510809  0.80310261
   0.06386203  0.66123561  0.66418320
   0.66507446  0.07762319  0.33485158
   0.99646045  0.74234419  0.99791628
   0.59309355  0.94785444  0.67063605
   0.92287695  0.60357125  0.32840327
   0.25360819  0.25260261  0.99932379
   0.40800626  0.34432069  0.33028562
   0.78708103  0.57124993  0.46736605
   0.73771601  0.99581600  0.00413249
   0.58663346  0.80412911  0.54779461
   0.62299603  0.66634346  0.67301144
   0.25493046  0.00199225  0.99761767
   0.07012129  0.40624914  0.66646681
   0.39924135  0.06332450  0.33141723
   0.31587606  0.38767079  0.66757675
   0.74499632  0.74578604  0.00560811
   0.54750319  0.44951610  0.19208906
   0.87397079  0.11942912  0.86975250
   0.33556385  0.93041469  0.66807282
   0.57016074  0.42274332  0.45400733
   0.67012372  0.57969845  0.32770740
   0.92866326  0.32586459  0.33261248
   0.34760182  0.99998017  0.50082919
   0.31213708  0.97923729  0.83420860
   0.90296112  0.80111007  0.12964520
   0.22652192  0.76407098  0.78675873
   0.11906756  0.23953454  0.13315453
   0.56194433  0.14100921  0.45429052
   0.23245376  0.47086079  0.78978310
   0.19492607  0.09657490  0.12670185
   0.00039754  0.25964181  0.99931082
   0.09476813  0.90081662  0.87240669
   0.80087898  0.90172947  0.87698606
   0.42328252  0.56863234  0.56578761
   0.53366640  0.76598977  0.77186690
   0.76806694  0.52974542  0.19645683
   0.13156596  0.56573553  0.54150222
   0.46471180  0.23215025  0.21453955
   0.64223875  0.64070435  0.48753879
   0.76649268  0.23557568  0.20849772
   0.65582460  0.68378584  0.84749012
   0.01135015  0.68352737  0.83071091
   0.09422299  0.19461673  0.87361827
   0.68451852  0.66622493  0.16818424
   0.55805510  0.89633712  0.77080649
   0.99563651  0.77201575  0.89246871
   0.89619200  0.33268904  0.22861337
   0.77173625  0.99973571  0.10955439
   0.10260995  0.43681962  0.56087583
   0.32695075  0.43469864  0.76918528
   0.00105059  0.77159251  0.10444359
   0.32963703  0.89215581  0.77214517
   0.22686993  0.99974983  0.10395329
   0.22523537  0.22527321  0.10543438
   0.10220268  0.43863063  0.77138408
   0.66307936  0.11299605  0.43903902
   0.00026432  0.22883225  0.10489207
   0.89555613  0.33505566  0.43607733
   0.33382066  0.89654723  0.56277701
   0.89735226  0.56747767  0.43375928
   0.09799859  0.66379202  0.76936804
   0.32910583  0.43795187  0.56503342
   0.89592422  0.56246416  0.22420204
   0.77481804  0.77429857  0.11147815
   0.66587197  0.55406130  0.43445261
   0.43708504  0.33495276  0.43533519
   0.10381973  0.66630859  0.55993229
   0.22428112  0.00007420  0.89200646
   0.66744197  0.55560849  0.22163165
   0.56211576  0.66544639  0.77357288
   0.99653123  0.22641372  0.89402016
   0.77018483  0.77374259  0.90026569
   0.66613650  0.10735911  0.22915766
   0.22373399  0.22576322  0.89347426
   0.43807270  0.33443083  0.22619122
   0.76804556  0.99867062  0.89833567
   0.56524043  0.90592928  0.56551152
   0.43639060  0.10294366  0.22786664
   0.43062362  0.10339556  0.43587428
Direct configuration=     2
   0.56230574  0.67043421  0.55752627
   0.73189930  0.66834738  0.67436821
   0.75430134  0.66462398  0.60462629
   0.72170824  0.59526295  0.71204638
   0.79566363  0.74646270  0.70584211
   0.01611049  0.33229079  0.83277752
   0.20843078  0.42230660  0.53339127
   0.54694632  0.09577632  0.20052348
   0.87404431  0.75835721  0.86619931
   0.45103830  0.54492931  0.78648838
   0.12151699  0.87837696  0.13098845
   0.08786468  0.54527256  0.79866544
   0.41163976  0.20844444  0.45718348
   0.76354307  0.88221164  0.13941475
   0.21447570  0.78614041  0.53874037
   0.90060122  0.10050901  0.12493067
   0.23723495  0.11976959  0.86236136
   0.87467460  0.44066306  0.44720191
   0.43436241  0.86967644  0.54350001
   0.98268894  0.31744257  0.16423797
   0.64858126  0.01234041  0.50334738
   0.00383076  0.65464606  0.49453820
   0.33288360  0.31397515  0.16358360
   0.98562614  0.66403308  0.16088479
   0.35745851  0.36146722  0.49855340
   0.68456392  0.01840317  0.17016465
   0.65819311  0.97374104  0.84026884
   0.99597996  0.34886048  0.50112099
   0.78109818  0.22309286  0.46524633
   0.33515590  0.01917653  0.16156018
   0.91048775  0.45440348  0.20673737
   0.31263230  0.33681753  0.83802044
   0.44461356  0.89510748  0.80310339
   0.06386109  0.66123543  0.66418515
   0.66507480  0.07762254  0.33485226
   0.99646034  0.74234431  0.99791720
   0.59309406  0.94785525  0.67063618
   0.92287750  0.60357130  0.32840264
   0.25360730  0.25260203  0.99932650
   0.40800506  0.34431858  0.33028575
   0.78707750  0.57124807  0.46736553
   0.73771628  0.99581473  0.00413822
   0.58663607  0.80412860  0.54779684
   0.62299241  0.66633614  0.67301382
   0.25492919  0.00199143  0.99761501
   0.07012068  0.40624856  0.66646518
   0.39924091  0.06332371  0.33141661
   0.31587630  0.38767064  0.66757733
   0.74499715  0.74578678  0.00560709
   0.54750363  0.44951630  0.19208992
   0.87397351  0.11943154  0.86975262
   0.33556324  0.93041295  0.66807130
   0.57016232  0.42274385  0.45400653
   0.67012352  0.57969958  0.32770584
   0.92866218  0.32586324  0.33261125
   0.34759906  0.99997426  0.50083183
   0.31213570  0.97923793  0.83421004
   0.90296060  0.80110933  0.12964505
   0.22651778  0.76406656  0.78675929
   0.11906959  0.23953499  0.13315378
   0.56194436  0.14100905  0.45429051
   0.23245228  0.47085931  0.78978294
   0.19492408  0.09657731  0.12670126
   0.00039838  0.25964245  0.99930978
   0.09476780  0.90081638  0.87240599
   0.80087850  0.90172281  0.87698529
   0.42328055  0.56862960  0.56578765
   0.53366656  0.76599044  0.77186705
   0.76806611  0.52974552  0.19645726
   0.13156515  0.56573320  0.54150207
   0.46471211  0.23215087  0.21454005
   0.64223960  0.64070377  0.48754137
   0.76649098  0.23557388  0.20849785
   0.65582413  0.68378530  0.84749181
   0.01134999  0.68352646  0.83071033
   0.09421873  0.19461706  0.87361755
   0.68451812  0.66622466  0.16818336
   0.55805819  0.89633995  0.77080937
   0.99563914  0.77201630  0.89246940
   0.89619237  0.33268852  0.22861306
   0.77173705  0.99973742  0.10954973
   0.10260931  0.43681779  0.56087641
   0.32695140  0.43469865  0.76918558
   0.00105190  0.77159457  0.10444355
   0.32963604  0.89215668  0.77214195
   0.22687149  0.99974926  0.10395355
   0.22523238  0.22527114  0.10543086
   0.10220421  0.43863174  0.77138225
   0.66308129  0.11299779  0.43903745
   0.00026574  0.22883630  0.10489175
   0.89556075  0.33506117  0.43607724
   0.33382142  0.89654798  0.56277747
   0.89735259  0.56747612  0.43375891
   0.09800014  0.66379199  0.76936917
   0.32910731  0.43795608  0.56503472
   0.89592480  0.56246531  0.22420369
   0.77481963  0.77429708  0.11147933
   0.66587431  0.55405900  0.43445240
   0.43708278  0.33495068  0.43533439
   0.10382224  0.66631164  0.55993097
   0.22428131  0.00007593  0.89200624
   0.66744074  0.55560818  0.22163234
   0.56211567  0.66544523  0.77357132
   0.99652845  0.22641032  0.89401940
   0.77018612  0.77374831  0.90026399
   0.66612990  0.10736158  0.22915572
   0.22373695  0.22576313  0.89347268
   0.43807904  0.33442610  0.22619321
   0.76804514  0.99867084  0.89833362
   0.56523612  0.90592691  0.56551194
   0.43638383  0.10293908  0.22786804
   0.43062896  0.10340327  0.43587112
Direct configuration=     3
   0.56230537  0.67043323  0.55752630
   0.73189316  0.66833448  0.67436952
   0.75429949  0.66461931  0.60462735
   0.72171595  0.59527891  0.71205045
   0.79567089  0.74647813  0.70583876
   0.01611100  0.33229181  0.83277666
   0.20843132  0.42230652  0.53339131
   0.54693665  0.09577532  0.20052331
   0.87404607  0.75835702  0.86619938
   0.45103893  0.54493041  0.78648859
   0.12152005  0.87837990  0.13098859
   0.08786453  0.54527086  0.79866539
   0.41163952  0.20844520  0.45718362
   0.76354334  0.88221135  0.13941460
   0.21447710  0.78614163  0.53874036
   0.90060341  0.10051125  0.12493027
   0.23723492  0.11977082  0.86236109
   0.87467446  0.44066381  0.44720188
   0.43436151  0.86967565  0.54350020
   0.98268899  0.31744283  0.16423786
   0.64858067  0.01234020  0.50334717
   0.00383059  0.65464588  0.49453829
   0.33288784  0.31397590  0.16358578
   0.98562584  0.66403276  0.16088493
   0.35745777  0.36146807  0.49855443
   0.68456395  0.01840446  0.17016531
   0.65819569  0.97374268  0.84027065
   0.99598028  0.34886030  0.50112106
   0.78110258  0.22309717  0.46524611
   0.33515647  0.01917622  0.16156036
   0.91048757  0.45440418  0.20673746
   0.31263216  0.33681698  0.83802070
   0.44461181  0.89510740  0.80310329
   0.06386126  0.66123546  0.66418415
   0.66507473  0.07762261  0.33485108
   0.99646036  0.74234432  0.99791702
   0.59309395  0.94785517  0.67063657
   0.92287768  0.60357140  0.32840352
   0.25360712  0.25260200  0.99932321
   0.40800489  0.34431785  0.33028519
   0.78707968  0.57124772  0.46736541
   0.73771600  0.99581433  0.00413317
   0.58663642  0.80412974  0.54779748
   0.62299264  0.66633614  0.67301330
   0.25492901  0.00199124  0.99761643
   0.07012036  0.40624823  0.66646566
   0.39924057  0.06332328  0.33141675
   0.31587634  0.38767062  0.66757709
   0.74499744  0.74578723  0.00560739
   0.54750304  0.44951550  0.19209011
   0.87397059  0.11942872  0.86975253
   0.33556306  0.93041283  0.66807153
   0.57016107  0.42274233  0.45400615
   0.67012342  0.57969982  0.32770705
   0.92866204  0.32586300  0.33261177
   0.34760178  0.99997832  0.50082899
   0.31213616  0.97923711  0.83420918
   0.90296120  0.80110923  0.12964521
   0.22652051  0.76406912  0.78675944
   0.11906783  0.23953516  0.13315351
   0.56194465  0.14100924  0.45429041
   0.23245251  0.47085907  0.78978285
   0.19492359  0.09657424  0.12670092
   0.00039843  0.25964260  0.99930983
   0.09476813  0.90081679  0.87240584
   0.80087864  0.90172780  0.87698467
   0.42328246  0.56863179  0.56578765
   0.53366680  0.76599030  0.77186708
   0.76806641  0.52974560  0.19645748
   0.13156483  0.56573359  0.54150208
   0.46471281  0.23214727  0.21454001
   0.64224002  0.64070250  0.48754131
   0.76649190  0.23557487  0.20849788
   0.65582324  0.68378509  0.84749157
   0.01134978  0.68352657  0.83071064
   0.09422153  0.19461698  0.87361750
   0.68451768  0.66622386  0.16818349
   0.55805650  0.89633838  0.77080739
   0.99563714  0.77201555  0.89246894
   0.89619094  0.33268771  0.22861294
   0.77173693  0.99973648  0.10955293
   0.10260934  0.43681799  0.56087596
   0.32695074  0.43469870  0.76918528
   0.00105004  0.77159268  0.10444349
   0.32963594  0.89215569  0.77214339
   0.22686836  0.99974872  0.10395259
   0.22523241  0.22527133  0.10543171
   0.10220265  0.43863089  0.77138299
   0.66308002  0.11299536  0.43903763
   0.00026547  0.22883459  0.10489156
   0.89555781  0.33505716  0.43607715
   0.33382077  0.89654658  0.56277694
   0.89735194  0.56747644  0.43375907
   0.09799865  0.66379151  0.76936874
   0.32910600  0.43795321  0.56503403
   0.89592471  0.56246483  0.22420249
   0.77481900  0.77429815  0.11147852
   0.66587280  0.55406009  0.43445212
   0.43708397  0.33495155  0.43533460
   0.10382096  0.66630988  0.55993205
   0.22428022  0.00007440  0.89200594
   0.66744121  0.55560873  0.22163182
   0.56211535  0.66544507  0.77357251
   0.99652974  0.22641242  0.89401977
   0.77018490  0.77374451  0.90026502
   0.66613511  0.10735973  0.22915670
   0.22373505  0.22576284  0.89347339
   0.43807482  0.33442712  0.22619108
   0.76804526  0.99867009  0.89833487
   0.56523745  0.90592718  0.56551199
   0.43638822  0.10293938  0.22786666
   0.43062676  0.10339915  0.43587345
Direct configuration=     4
   0.56230662  0.67043259  0.55752639
   0.73189985  0.66834751  0.67437154
   0.75429070  0.66459743  0.60463178
   0.72173909  0.59531341  0.71207834
   0.79567815  0.74650902  0.70581561
   0.01611043  0.33229179  0.83277562
   0.20843184  0.42230633  0.53339131
   0.54693461  0.09577230  0.20052310
   0.87404661  0.75835612  0.86619929
   0.45103805  0.54493149  0.78648952
   0.12152051  0.87837978  0.13098892
   0.08786394  0.54526937  0.79866527
   0.41163906  0.20844465  0.45718374
   0.76354389  0.88221129  0.13941510
   0.21447624  0.78614040  0.53873998
   0.90060434  0.10051197  0.12492918
   0.23723467  0.11977148  0.86236057
   0.87467470  0.44066326  0.44720148
   0.43436107  0.86967333  0.54350077
   0.98268888  0.31744315  0.16423711
   0.64857933  0.01233884  0.50334701
   0.00383082  0.65464536  0.49453913
   0.33288881  0.31397266  0.16358518
   0.98562570  0.66403184  0.16088530
   0.35745780  0.36146828  0.49855462
   0.68456411  0.01840456  0.17016480
   0.65819529  0.97374306  0.84027089
   0.99598016  0.34885944  0.50112031
   0.78110194  0.22309668  0.46524604
   0.33515474  0.01917566  0.16155882
   0.91048687  0.45440421  0.20673785
   0.31263161  0.33681598  0.83802069
   0.44461061  0.89510731  0.80310297
   0.06386136  0.66123555  0.66418304
   0.66507452  0.07762200  0.33485107
   0.99646067  0.74234443  0.99791624
   0.59309400  0.94785580  0.67063629
   0.92287809  0.60357134  0.32840331
   0.25360688  0.25260152  0.99932235
   0.40800433  0.34431506  0.33028412
   0.78707918  0.57124591  0.46736479
   0.73771579  0.99581324  0.00413238
   0.58663798  0.80413003  0.54779967
   0.62299041  0.66633120  0.67301325
   0.25492817  0.00199059  0.99761690
   0.07011949  0.40624718  0.66646606
   0.39924047  0.06332300  0.33141724
   0.31587657  0.38767048  0.66757654
   0.74499778  0.74578819  0.00560837
   0.54750203  0.44951339  0.19209110
   0.87396993  0.11942815  0.86975248
   0.33556261  0.93041221  0.66807203
   0.57016062  0.42274090  0.45400484
   0.67012314  0.57970083  0.32770703
   0.92866130  0.32586216  0.33261195
   0.34760341  0.99997859  0.50082796
   0.31213616  0.97923614  0.83420833
   0.90296083  0.80110899  0.12964595
   0.22652174  0.76406995  0.78675982
   0.11906820  0.23953623  0.13315309
   0.56194547  0.14100965  0.45429002
   0.23245108  0.47085800  0.78978246
   0.19492171  0.09657192  0.12669996
   0.00039885  0.25964354  0.99930959
   0.09476692  0.90081582  0.87240530
   0.80087857  0.90172900  0.87698303
   0.42328225  0.56863158  0.56578765
   0.53366757  0.76599020  0.77186704
   0.76806682  0.52974573  0.19645830
   0.13156393  0.56573370  0.54150200
   0.46471372  0.23214613  0.21454037
   0.64224032  0.64070112  0.48754354
   0.76649060  0.23557496  0.20849747
   0.65582153  0.68378445  0.84749212
   0.01134912  0.68352637  0.83071131
   0.09422278  0.19461671  0.87361698
   0.68451720  0.66622367  0.16818255
   0.55805574  0.89633777  0.77080797
   0.99563543  0.77201485  0.89246862
   0.89619089  0.33268821  0.22861307
   0.77173810  0.99973605  0.10955342
   0.10260908  0.43681789  0.56087545
   0.32694995  0.43469832  0.76918544
   0.00105015  0.77159209  0.10444360
   0.32963594  0.89215481  0.77214441
   0.22686777  0.99974816  0.10395254
   0.22523303  0.22527177  0.10543194
   0.10220146  0.43862962  0.77138301
   0.66308170  0.11299510  0.43903828
   0.00026402  0.22883427  0.10489092
   0.89555753  0.33505599  0.43607649
   0.33382054  0.89654774  0.56277552
   0.89735251  0.56747644  0.43375906
   0.09799797  0.66379127  0.76936862
   0.32910645  0.43795286  0.56503391
   0.89592454  0.56246442  0.22420225
   0.77481812  0.77429842  0.11147815
   0.66587230  0.55405933  0.43445202
   0.43708368  0.33495196  0.43533449
   0.10381932  0.66630824  0.55993246
   0.22427959  0.00007317  0.89200541
   0.66744123  0.55560881  0.22163200
   0.56211431  0.66544470  0.77357389
   0.99652984  0.22641258  0.89401910
   0.77018472  0.77374332  0.90026460
   0.66613476  0.10735824  0.22915613
   0.22373316  0.22576264  0.89347176
   0.43807348  0.33442488  0.22619010
   0.76804547  0.99866930  0.89833529
   0.56523888  0.90592807  0.56551267
   0.43638698  0.10293667  0.22786680
   0.43062587  0.10339723  0.43587340
Direct configuration=     5
   0.56230608  0.67043239  0.55752698
   0.73190025  0.66834859  0.67437308
   0.75428742  0.66458855  0.60463323
   0.72174948  0.59532960  0.71208937
   0.79568215  0.74652380  0.70580632
   0.01610987  0.33229079  0.83277598
   0.20843146  0.42230631  0.53339136
   0.54693516  0.09577100  0.20052299
   0.87404505  0.75835561  0.86619912
   0.45103693  0.54493090  0.78648976
   0.12151970  0.87837874  0.13098903
   0.08786373  0.54527010  0.79866508
   0.41163898  0.20844453  0.45718376
   0.76354402  0.88221167  0.13941541
   0.21447649  0.78614056  0.53874001
   0.90060376  0.10051120  0.12492895
   0.23723446  0.11977031  0.86236052
   0.87467480  0.44066303  0.44720135
   0.43436067  0.86967324  0.54350102
   0.98268838  0.31744323  0.16423713
   0.64857952  0.01233899  0.50334662
   0.00383013  0.65464505  0.49453895
   0.33288833  0.31397170  0.16358452
   0.98562596  0.66403209  0.16088496
   0.35745786  0.36146808  0.49855438
   0.68456468  0.01840428  0.17016430
   0.65819501  0.97374302  0.84027094
   0.99598044  0.34885925  0.50112027
   0.78110241  0.22309689  0.46524618
   0.33515517  0.01917534  0.16155921
   0.91048666  0.45440371  0.20673786
   0.31263197  0.33681663  0.83802015
   0.44461161  0.89510719  0.80310314
   0.06386116  0.66123546  0.66418420
   0.66507460  0.07762191  0.33485086
   0.99646064  0.74234444  0.99791670
   0.59309391  0.94785583  0.67063722
   0.92287827  0.60357135  0.32840327
   0.25360646  0.25260117  0.99932241
   0.40800391  0.34431426  0.33028426
   0.78707877  0.57124537  0.46736464
   0.73771580  0.99581279  0.00413385
   0.58663823  0.80413016  0.54780031
   0.62299038  0.66633106  0.67301383
   0.25492781  0.00199027  0.99761594
   0.07011925  0.40624691  0.66646533
   0.39923994  0.06332220  0.33141724
   0.31587667  0.38767045  0.66757703
   0.74499812  0.74578849  0.00560716
   0.54750278  0.44951380  0.19209140
   0.87397059  0.11942879  0.86975246
   0.33556242  0.93041175  0.66807142
   0.57016087  0.42274094  0.45400448
   0.67012299  0.57970121  0.32770720
   0.92866115  0.32586168  0.33261130
   0.34760296  0.99997797  0.50082804
   0.31213572  0.97923649  0.83420879
   0.90296057  0.80110859  0.12964593
   0.22652005  0.76406817  0.78675992
   0.11906817  0.23953644  0.13315274
   0.56194597  0.14100931  0.45428983
   0.23245124  0.47085784  0.78978258
   0.19492105  0.09657286  0.12669963
   0.00039898  0.25964373  0.99930895
   0.09476678  0.90081571  0.87240508
   0.80087851  0.90172683  0.87698260
   0.42328279  0.56863199  0.56578755
   0.53366759  0.76599070  0.77186703
   0.76806636  0.52974571  0.19645844
   0.13156370  0.56573285  0.54150196
   0.46471395  0.23214553  0.21454036
   0.64224088  0.64070012  0.48754366
   0.76649032  0.23557473  0.20849751
   0.65582189  0.68378450  0.84749290
   0.01134929  0.68352589  0.83071099
   0.09422055  0.19461663  0.87361656
   0.68451688  0.66622315  0.16818243
   0.55805585  0.89633812  0.77080773
   0.99563623  0.77201504  0.89246876
   0.89619033  0.33268762  0.22861286
   0.77173784  0.99973613  0.10955276
   0.10260907  0.43681752  0.56087559
   0.32694986  0.43469812  0.76918523
   0.00104998  0.77159199  0.10444355
   0.32963571  0.89215494  0.77214346
   0.22686701  0.99974770  0.10395210
   0.22523183  0.22527020  0.10543096
   0.10220152  0.43862971  0.77138254
   0.66308037  0.11299455  0.43903787
   0.00026527  0.22883510  0.10489076
   0.89555729  0.33505599  0.43607683
   0.33382026  0.89654604  0.56277642
   0.89735250  0.56747604  0.43375891
   0.09799828  0.66379117  0.76936869
   0.32910633  0.43795300  0.56503396
   0.89592453  0.56246456  0.22420271
   0.77481878  0.77429813  0.11147867
   0.66587226  0.55405912  0.43445201
   0.43708314  0.33495068  0.43533401
   0.10382015  0.66630892  0.55993211
   0.22427958  0.00007362  0.89200539
   0.66744046  0.55560818  0.22163174
   0.56211408  0.66544431  0.77357328
   0.99652960  0.22641213  0.89401894
   0.77018475  0.77374410  0.90026463
   0.66613442  0.10735853  0.22915644
   0.22373409  0.22576234  0.89347245
   0.43807435  0.33442395  0.22619057
   0.76804491  0.99866948  0.89833468
   0.56523784  0.90592668  0.56551290
   0.43638641  0.10293628  0.22786643
   0.43062724  0.10339894  0.43587303
Direct configuration=     6
   0.56230616  0.67043233  0.55752709
   0.73190153  0.66835107  0.67437340
   0.75428600  0.66458485  0.60463397
   0.72175351  0.59533538  0.71209426
   0.79568322  0.74652900  0.70580227
   0.01610982  0.33229068  0.83277595
   0.20843147  0.42230631  0.53339138
   0.54693494  0.09577044  0.20052296
   0.87404488  0.75835541  0.86619911
   0.45103670  0.54493093  0.78648991
   0.12151960  0.87837853  0.13098909
   0.08786364  0.54527006  0.79866502
   0.41163894  0.20844446  0.45718382
   0.76354413  0.88221171  0.13941553
   0.21447655  0.78614056  0.53873998
   0.90060386  0.10051124  0.12492882
   0.23723440  0.11977017  0.86236045
   0.87467486  0.44066300  0.44720129
   0.43436064  0.86967309  0.54350113
   0.98268826  0.31744320  0.16423705
   0.64857943  0.01233879  0.50334660
   0.00383004  0.65464500  0.49453899
   0.33288834  0.31397127  0.16358434
   0.98562598  0.66403204  0.16088492
   0.35745791  0.36146806  0.49855433
   0.68456483  0.01840438  0.17016429
   0.65819488  0.97374302  0.84027097
   0.99598052  0.34885915  0.50112020
   0.78110230  0.22309668  0.46524621
   0.33515506  0.01917515  0.16155912
   0.91048658  0.45440363  0.20673788
   0.31263198  0.33681660  0.83802010
   0.44461159  0.89510713  0.80310319
   0.06386116  0.66123545  0.66418429
   0.66507466  0.07762184  0.33485083
   0.99646064  0.74234444  0.99791676
   0.59309392  0.94785590  0.67063724
   0.92287839  0.60357139  0.32840333
   0.25360636  0.25260107  0.99932241
   0.40800373  0.34431389  0.33028424
   0.78707871  0.57124511  0.46736455
   0.73771581  0.99581256  0.00413383
   0.58663840  0.80413008  0.54780058
   0.62299015  0.66633048  0.67301400
   0.25492766  0.00199012  0.99761582
   0.07011914  0.40624676  0.66646524
   0.39923982  0.06332195  0.33141722
   0.31587674  0.38767045  0.66757704
   0.74499826  0.74578868  0.00560717
   0.54750278  0.44951364  0.19209151
   0.87397060  0.11942878  0.86975247
   0.33556235  0.93041162  0.66807132
   0.57016082  0.42274080  0.45400430
   0.67012294  0.57970137  0.32770716
   0.92866105  0.32586147  0.33261125
   0.34760302  0.99997781  0.50082803
   0.31213566  0.97923646  0.83420880
   0.90296061  0.80110847  0.12964597
   0.22652000  0.76406804  0.78675998
   0.11906834  0.23953658  0.13315262
   0.56194604  0.14100929  0.45428977
   0.23245121  0.47085775  0.78978262
   0.19492070  0.09657267  0.12669949
   0.00039907  0.25964382  0.99930886
   0.09476679  0.90081574  0.87240499
   0.80087849  0.90172676  0.87698239
   0.42328280  0.56863197  0.56578754
   0.53366768  0.76599076  0.77186703
   0.76806632  0.52974572  0.19645853
   0.13156362  0.56573269  0.54150196
   0.46471414  0.23214532  0.21454036
   0.64224095  0.64069996  0.48754397
   0.76649022  0.23557466  0.20849751
   0.65582175  0.68378442  0.84749306
   0.01134930  0.68352577  0.83071097
   0.09422056  0.19461657  0.87361643
   0.68451677  0.66622299  0.16818234
   0.55805594  0.89633817  0.77080777
   0.99563619  0.77201496  0.89246874
   0.89619016  0.33268749  0.22861282
   0.77173790  0.99973611  0.10955275
   0.10260903  0.43681741  0.56087555
   0.32694980  0.43469808  0.76918521
   0.00104992  0.77159191  0.10444357
   0.32963564  0.89215485  0.77214343
   0.22686433  0.99974708  0.10395119
   0.22523169  0.22527004  0.10543082
   0.10220143  0.43862965  0.77138249
   0.66308037  0.11299454  0.43903780
   0.00026534  0.22883522  0.10489066
   0.89555737  0.33505597  0.43607681
   0.33382027  0.89654588  0.56277642
   0.89735245  0.56747591  0.43375888
   0.09799824  0.66379109  0.76936872
   0.32910638  0.43795303  0.56503397
   0.89592455  0.56246457  0.22420274
   0.77481881  0.77429810  0.11147866
   0.66587227  0.55405892  0.43445193
   0.43708313  0.33495053  0.43533396
   0.10382017  0.66630890  0.55993214
   0.22427947  0.00007354  0.89200534
   0.66744041  0.55560814  0.22163183
   0.56211401  0.66544422  0.77357332
   0.99652951  0.22641210  0.89401893
   0.77018472  0.77374409  0.90026456
   0.66613444  0.10735844  0.22915641
   0.22373405  0.22576224  0.89347237
   0.43807444  0.33442366  0.22619055
   0.76804491  0.99866941  0.89833466
   0.56523773  0.90592663  0.56551301
   0.43638644  0.10293607  0.22786641
   0.43062740  0.10339901  0.43587303
Direct configuration=     7
   0.56230597  0.67043270  0.55752664
   0.73189535  0.66834169  0.67437207
   0.75429115  0.66459815  0.60463141
   0.72173867  0.59531352  0.71207687
   0.79567881  0.74650940  0.70581677
   0.01610999  0.33229063  0.83277633
   0.20843128  0.42230634  0.53339129
   0.54693468  0.09577225  0.20052298
   0.87404498  0.75835618  0.86619918
   0.45103750  0.54493073  0.78648934
   0.12152106  0.87838016  0.13098877
   0.08786396  0.54527070  0.79866514
   0.41163902  0.20844498  0.45718361
   0.76354384  0.88221215  0.13941515
   0.21447696  0.78614123  0.53874008
   0.90060334  0.10051098  0.12492924
   0.23723467  0.11977027  0.86236064
   0.87467465  0.44066338  0.44720149
   0.43436073  0.86967383  0.54350076
   0.98268863  0.31744338  0.16423741
   0.64857991  0.01233941  0.50334674
   0.00383030  0.65464533  0.49453879
   0.33288831  0.31397281  0.16358500
   0.98562599  0.66403234  0.16088500
   0.35745776  0.36146810  0.49855451
   0.68456443  0.01840439  0.17016441
   0.65819467  0.97374278  0.84027051
   0.99598042  0.34885965  0.50112055
   0.78110232  0.22309704  0.46524615
   0.33515840  0.01917596  0.16156096
   0.91048692  0.45440386  0.20673781
   0.31263225  0.33681713  0.83802007
   0.44461188  0.89510737  0.80310316
   0.06386117  0.66123546  0.66418441
   0.66507446  0.07762210  0.33485090
   0.99646061  0.74234438  0.99791682
   0.59309387  0.94785547  0.67063704
   0.92287801  0.60357131  0.32840341
   0.25360670  0.25260145  0.99932296
   0.40800433  0.34431526  0.33028453
   0.78707901  0.57124600  0.46736479
   0.73771578  0.99581326  0.00413401
   0.58663772  0.80412996  0.54779927
   0.62299100  0.66633261  0.67301334
   0.25492836  0.00199061  0.99761622
   0.07011947  0.40624720  0.66646532
   0.39923991  0.06332244  0.33141710
   0.31587654  0.38767050  0.66757717
   0.74499797  0.74578819  0.00560694
   0.54750277  0.44951417  0.19209111
   0.87397135  0.11942957  0.86975236
   0.33556260  0.93041218  0.66807116
   0.57016094  0.42274141  0.45400498
   0.67012310  0.57970071  0.32770721
   0.92866141  0.32586217  0.33261157
   0.34760268  0.99997839  0.50082799
   0.31213580  0.97923686  0.83420903
   0.90296093  0.80110884  0.12964576
   0.22651998  0.76406826  0.78675980
   0.11906829  0.23953612  0.13315291
   0.56194569  0.14100924  0.45428994
   0.23245190  0.47085809  0.78978260
   0.19492252  0.09657268  0.12669994
   0.00039882  0.25964342  0.99930880
   0.09476740  0.90081627  0.87240526
   0.80087860  0.90172680  0.87698297
   0.42328264  0.56863199  0.56578762
   0.53366735  0.76599069  0.77186704
   0.76806637  0.52974564  0.19645822
   0.13156394  0.56573298  0.54150196
   0.46471339  0.23214577  0.21454028
   0.64224050  0.64070081  0.48754298
   0.76649092  0.23557507  0.20849759
   0.65582273  0.68378504  0.84749281
   0.01134964  0.68352599  0.83071067
   0.09422074  0.19461677  0.87361677
   0.68451699  0.66622329  0.16818280
   0.55805581  0.89633809  0.77080764
   0.99563640  0.77201527  0.89246893
   0.89619063  0.33268791  0.22861289
   0.77173771  0.99973611  0.10955293
   0.10260924  0.43681793  0.56087567
   0.32694998  0.43469822  0.76918527
   0.00105061  0.77159277  0.10444358
   0.32963594  0.89215519  0.77214364
   0.22686645  0.99974770  0.10395184
   0.22523215  0.22527035  0.10543133
   0.10220170  0.43862989  0.77138270
   0.66308046  0.11299483  0.43903805
   0.00026511  0.22883480  0.10489104
   0.89555722  0.33505614  0.43607684
   0.33382024  0.89654631  0.56277648
   0.89735254  0.56747636  0.43375896
   0.09799833  0.66379137  0.76936859
   0.32910629  0.43795300  0.56503395
   0.89592456  0.56246461  0.22420250
   0.77481878  0.77429828  0.11147861
   0.66587226  0.55405942  0.43445206
   0.43708332  0.33495114  0.43533417
   0.10382012  0.66630893  0.55993206
   0.22427987  0.00007380  0.89200584
   0.66744071  0.55560836  0.22163161
   0.56211426  0.66544453  0.77357302
   0.99652967  0.22641234  0.89401910
   0.77018478  0.77374398  0.90026480
   0.66613490  0.10735871  0.22915658