       N       E                     dE             d eps       ncg     rms          rms(c)
DAV:   1     0.441956455664E+04    0.44196E+04   -0.24491E+05   760   0.116E+03
DAV:   2    -0.421312181517E+03   -0.48409E+04   -0.47423E+04   872   0.325E+02
DAV:   3    -0.976548050554E+03   -0.55524E+03   -0.55315E+03   816   0.119E+02
DAV:   4    -0.989468937843E+03   -0.12921E+02   -0.12882E+02   824   0.196E+01
DAV:   5    -0.989873787830E+03   -0.40485E+00   -0.40445E+00   840   0.313E+00    0.856E+01
DAV:   6    -0.873839374447E+03    0.11603E+03   -0.50746E+02   800   0.353E+01    0.396E+01
DAV:   7    -0.873282092021E+03    0.55728E+00   -0.16046E+01   920   0.592E+00    0.151E+01
DAV:   8    -0.872787594681E+03    0.49450E+00   -0.10889E+00   816   0.224E+00    0.598E+00
DAV:   9    -0.872641258477E+03    0.14634E+00   -0.44895E-01   832   0.145E+00    0.103E+00
DAV:  10    -0.872643432749E+03   -0.21743E-02   -0.84574E-02   816   0.632E-01    0.656E-01
DAV:  11    -0.872644341790E+03   -0.90904E-03   -0.19808E-02   784   0.296E-01    0.292E-01
DAV:  12    -0.872650826407E+03   -0.64846E-02   -0.72842E-03   784   0.226E-01    0.147E-01
DAV:  13    -0.872661484402E+03   -0.10658E-01   -0.45849E-03   808   0.195E-01    0.177E-01
DAV:  14    -0.872669535604E+03   -0.80512E-02   -0.26479E-03   800   0.129E-01    0.566E-02
DAV:  15    -0.872671369078E+03   -0.18335E-02   -0.54226E-04   832   0.551E-02    0.546E-02
DAV:  16    -0.872671841761E+03   -0.47268E-03   -0.16379E-04   824   0.276E-02    0.399E-02
DAV:  17    -0.872672025642E+03   -0.18388E-03   -0.70411E-05   808   0.159E-02    0.192E-02
DAV:  18    -0.872672320206E+03   -0.29456E-03   -0.29460E-05   800   0.980E-03    0.803E-03
DAV:  19    -0.872672356796E+03   -0.36590E-04   -0.90169E-06   760   0.746E-03    0.630E-03
DAV:  20    -0.872672373373E+03   -0.16577E-04   -0.31645E-06   640   0.364E-03    0.345E-03
DAV:  21    -0.872672386719E+03   -0.13346E-04   -0.11407E-06   536   0.220E-03    0.190E-03
DAV:  22    -0.872672390541E+03   -0.38216E-05   -0.10179E-06   528   0.227E-03    0.952E-04
DAV:  23    -0.872672390846E+03   -0.30534E-06   -0.21731E-07   528   0.963E-04
   1 F= -.87267239E+03 E0= -.87267239E+03  d E =-.872672E+03
       N       E                     dE             d eps       ncg     rms          rms(c)
DAV:   1    -0.872672561242E+03   -0.17070E-03   -0.25722E-01   720   0.102E+00    0.178E-01
DAV:   2    -0.872673048701E+03   -0.48746E-03   -0.62913E-03   824   0.147E-01    0.700E-02
DAV:   3    -0.872672958867E+03    0.89835E-04   -0.16133E-04   816   0.322E-02    0.406E-02
DAV:   4    -0.872672927486E+03    0.31381E-04   -0.21693E-04   800   0.346E-02    0.152E-02
DAV:   5    -0.872672925101E+03    0.23845E-05   -0.33954E-05   824   0.148E-02    0.136E-02
DAV:   6    -0.872672923613E+03    0.14885E-05   -0.16472E-05   808   0.101E-02    0.610E-03
DAV:   7    -0.872672923601E+03    0.11787E-07   -0.26699E-06   568   0.466E-03
   2 F= -.87267292E+03 E0= -.87267292E+03  d E =-.532755E-03
       N       E                     dE             d eps       ncg     rms          rms(c)
DAV:   1    -0.872673265489E+03   -0.34188E-03   -0.71425E-02   720   0.520E-01    0.119E-01
DAV:   2    -0.872673398113E+03   -0.13262E-03   -0.20202E-03   824   0.838E-02    0.430E-02
DAV:   3    -0.872673357441E+03    0.40671E-04   -0.67894E-05   816   0.217E-02    0.238E-02
DAV:   4    -0.872673344440E+03    0.13001E-04   -0.72688E-05   792   0.212E-02    0.833E-03
DAV:   5    -0.872673344099E+03    0.34116E-06   -0.17152E-05   824   0.975E-03    0.948E-03
DAV:   6    -0.872673343577E+03    0.52142E-06   -0.46088E-06   776   0.497E-03
   3 F= -.87267334E+03 E0= -.87267334E+03  d E =-.419976E-03
       N       E                     dE             d eps       ncg     rms          rms(c)
DAV:   1    -0.872673600882E+03   -0.25678E-03   -0.44120E-02   720   0.418E-01    0.627E-02
DAV:   2    -0.872673685736E+03   -0.84855E-04   -0.10644E-03   824   0.604E-02    0.249E-02
DAV:   3    -0.872673673345E+03    0.12392E-04   -0.25648E-05   816   0.129E-02    0.148E-02
DAV:   4    -0.872673667681E+03    0.56640E-05   -0.24738E-05   792   0.138E-02    0.440E-03
DAV:   5    -0.872673667928E+03   -0.24759E-06   -0.77271E-06   824   0.612E-03
   4 F= -.87267367E+03 E0= -.87267367E+03  d E =-.324351E-03
       N       E                     dE             d eps       ncg     rms          rms(c)
DAV:   1    -0.872673852779E+03   -0.18510E-03   -0.40686E-02   720   0.399E-01    0.453E-02
DAV:   2    -0.872673929214E+03   -0.76435E-04   -0.89887E-04   808   0.548E-02    0.206E-02
DAV:   3    -0.872673922617E+03    0.65972E-05   -0.18996E-05   824   0.998E-03    0.127E-02
DAV:   4    -0.872673918888E+03    0.37291E-05   -0.17970E-05   800   0.113E-02    0.417E-03
DAV:   5    -0.872673918959E+03   -0.71675E-07   -0.44974E-06   728   0.478E-03
   5 F= -.87267392E+03 E0= -.87267392E+03  d E =-.251031E-03
       N       E                     dE             d eps       ncg     rms          rms(c)
DAV:   1    -0.872674080852E+03   -0.16196E-03   -0.33300E-02   720   0.360E-01    0.416E-02
DAV:   2    -0.872674142766E+03   -0.61914E-04   -0.71831E-04   800   0.486E-02    0.178E-02
DAV:   3    -0.872674137692E+03    0.50736E-05   -0.14143E-05   824   0.875E-03    0.109E-02
DAV:   4    -0.872674135136E+03    0.25558E-05   -0.14499E-05   808   0.104E-02    0.353E-03
DAV:   5    -0.872674135298E+03   -0.16182E-06   -0.38242E-06   688   0.414E-03
   6 F= -.87267414E+03 E0= -.87267414E+03  d E =-.216339E-03
       N       E                     dE             d eps       ncg     rms          rms(c)
DAV:   1    -0.872674320180E+03   -0.18504E-03   -0.81826E-02   720   0.564E-01    0.537E-02
DAV:   2    -0.872674474454E+03   -0.15427E-03   -0.17377E-03   784   0.748E-02    0.272E-02
DAV:   3    -0.872674465928E+03    0.85261E-05   -0.32761E-05   824   0.123E-02    0.174E-02
DAV:   4    -0.872674460656E+03    0.52718E-05   -0.32996E-05   808   0.151E-02    0.609E-03
DAV:   5    -0.872674460822E+03   -0.16594E-06   -0.74792E-06   784   0.593E-03
   7 F= -.87267446E+03 E0= -.87267446E+03  d E =-.325524E-03
       N       E                     dE             d eps       ncg     rms          rms(c)
DAV:   1    -0.872674603388E+03   -0.14273E-03   -0.44739E-02   720   0.417E-01    0.469E-02
DAV:   2    -0.872674689695E+03   -0.86307E-04   -0.99348E-04   808   0.568E-02    0.214E-02
DAV:   3    -0.872674683017E+03    0.66773E-05   -0.19099E-05   824   0.995E-03    0.132E-02
DAV:   4    -0.872674679482E+03    0.35357E-05   -0.21472E-05   808   0.125E-02    0.458E-03
DAV:   5    -0.872674679602E+03   -0.11984E-06   -0.54911E-06   776   0.503E-03
   8 F= -.87267468E+03 E0= -.87267468E+03  d E =-.218780E-03
       N       E                     dE             d eps       ncg     rms          rms(c)
DAV:   1    -0.872674697099E+03   -0.17617E-04   -0.44553E-03   728   0.128E-01    0.317E-02
DAV:   2    -0.872674703779E+03   -0.66799E-05   -0.12677E-04   824   0.213E-02    0.108E-02
DAV:   3    -0.872674700712E+03    0.30670E-05   -0.51704E-06   792   0.607E-03    0.589E-03
DAV:   4    -0.872674699626E+03    0.10859E-05   -0.38475E-06   680   0.532E-03    0.167E-03
DAV:   5    -0.872674699639E+03   -0.13126E-07   -0.12362E-06   520   0.267E-03
   9 F= -.87267470E+03 E0= -.87267470E+03  d E =-.200374E-04
       N       E                     dE             d eps       ncg     rms          rms(c)
DAV:   1    -0.872674827998E+03   -0.12837E-03   -0.23564E-02   720   0.302E-01    0.331E-02
DAV:   2    -0.872674873063E+03   -0.45065E-04   -0.51505E-04   800   0.410E-02    0.155E-02
DAV:   3    -0.872674869699E+03    0.33645E-05   -0.10099E-05   816   0.734E-03    0.967E-03
DAV:   4    -0.872674867896E+03    0.18028E-05   -0.11126E-05   792   0.904E-03    0.337E-03
DAV:   5    -0.872674867927E+03   -0.30464E-07   -0.27401E-06   624   0.375E-03
  10 F= -.87267487E+03 E0= -.87267487E+03  d E =-.168288E-03
       N       E                     dE             d eps       ncg     rms          rms(c)
DAV:   1    -0.872674960007E+03   -0.92111E-04   -0.10740E-02   720   0.204E-01    0.254E-02
DAV:   2    -0.872674980423E+03   -0.20416E-04   -0.24102E-04   800   0.282E-02    0.104E-02
DAV:   3    -0.872674978712E+03    0.17108E-05   -0.53132E-06   808   0.528E-03    0.634E-03
DAV:   4    -0.872674977817E+03    0.89472E-06   -0.43184E-06   768   0.571E-03
  11 F= -.87267498E+03 E0= -.87267498E+03  d E =-.109890E-03
       N       E                     dE             d eps       ncg     rms          rms(c)
DAV:   1    -0.872675117294E+03   -0.13858E-03   -0.39911E-02   704   0.390E-01    0.371E-02
DAV:   2    -0.872675190229E+03   -0.72935E-04   -0.82016E-04   784   0.511E-02    0.189E-02
DAV:   3    -0.872675186078E+03    0.41509E-05   -0.15270E-05   824   0.822E-03    0.120E-02
DAV:   4    -0.872675183600E+03    0.24785E-05   -0.15717E-05   792   0.106E-02    0.404E-03
DAV:   5    -0.872675183733E+03   -0.13320E-06   -0.38691E-06   696   0.416E-03
  12 F= -.87267518E+03 E0= -.87267518E+03  d E =-.205916E-03
       N       E                     dE             d eps       ncg     rms          rms(c)
DAV:   1    -0.872675295352E+03   -0.11175E-03   -0.20857E-02   720   0.283E-01    0.314E-02
DAV:   2    -0.872675334835E+03   -0.39483E-04   -0.45201E-04   800   0.382E-02    0.140E-02
DAV:   3    -0.872675332397E+03    0.24380E-05   -0.93875E-06   824   0.662E-03    0.867E-03
DAV:   4    -0.872675331117E+03    0.12802E-05   -0.81652E-06   792   0.745E-03    0.302E-03
DAV:   5    -0.872675331152E+03   -0.35296E-07   -0.17370E-06   536   0.300E-03
  13 F= -.87267533E+03 E0= -.87267533E+03  d E =-.147419E-03
       N       E                     dE             d eps       ncg     rms          rms(c)
DAV:   1    -0.872675301342E+03    0.29774E-04   -0.21758E-03   720   0.904E-02    0.172E-02
DAV:   2    -0.872675305159E+03   -0.38166E-05   -0.53932E-05   824   0.136E-02    0.637E-03
DAV:   3    -0.872675304199E+03    0.95955E-06   -0.14974E-06   544   0.327E-03
  14 F= -.87267530E+03 E0= -.87267530E+03  d E =0.269527E-04
       N       E                     dE             d eps       ncg     rms          rms(c)
DAV:   1    -0.872675369716E+03   -0.64557E-04   -0.49128E-03   720   0.137E-01    0.127E-02
DAV:   2    -0.872675379157E+03   -0.94404E-05   -0.10446E-04   776   0.182E-02    0.673E-03
DAV:   3    -0.872675378638E+03    0.51820E-06   -0.16916E-06   568   0.283E-03
  15 F= -.87267538E+03 E0= -.87267538E+03  d E =-.744391E-04
       N       E                     dE             d eps       ncg     rms          rms(c)
DAV:   1    -0.872675524845E+03   -0.14569E-03   -0.50835E-02   712   0.440E-01    0.368E-02
DAV:   2    -0.872675615333E+03   -0.90488E-04   -0.99835E-04   768   0.558E-02    0.202E-02
DAV:   3    -0.872675611504E+03    0.38287E-05   -0.18260E-05   832   0.827E-03    0.130E-02
DAV:   4    -0.872675608789E+03    0.27149E-05   -0.15314E-05   792   0.104E-02    0.409E-03
DAV:   5    -0.872675609010E+03   -0.22146E-06   -0.38752E-06   680   0.403E-03
  16 F= -.87267561E+03 E0= -.87267561E+03  d E =-.230372E-03
       N       E                     dE             d eps       ncg     rms          rms(c)
DAV:   1    -0.872675724924E+03   -0.11614E-03   -0.27955E-02   720   0.325E-01    0.305E-02
DAV:   2    -0.872675777081E+03   -0.52156E-04   -0.57862E-04   784   0.427E-02    0.154E-02
DAV:   3    -0.872675774712E+03    0.23684E-05   -0.10431E-05   824   0.673E-03    0.984E-03
DAV:   4    -0.872675773356E+03    0.13566E-05   -0.10840E-05   792   0.866E-03    0.358E-03
DAV:   5    -0.872675773393E+03   -0.36824E-07   -0.23305E-06   616   0.336E-03
  17 F= -.87267577E+03 E0= -.87267577E+03  d E =-.164382E-03
       N       E                     dE             d eps       ncg     rms          rms(c)
DAV:   1    -0.872674752813E+03    0.10205E-02   -0.12078E+00   704   0.214E+00    0.176E-01
DAV:   2    -0.872676966011E+03   -0.22132E-02   -0.24250E-02   768   0.274E-01    0.989E-02
DAV:   3    -0.872676873115E+03    0.92895E-04   -0.41479E-04   832   0.400E-02    0.646E-02
DAV:   4    -0.872676809055E+03    0.64060E-04   -0.42816E-04   808   0.547E-02    0.215E-02
DAV:   5    -0.872676813314E+03   -0.42596E-05   -0.10252E-04   784   0.208E-02    0.213E-02
DAV:   6    -0.872676809824E+03    0.34906E-05   -0.26632E-05   816   0.113E-02    0.109E-02
DAV:   7    -0.872676808518E+03    0.13062E-05   -0.65101E-06   792   0.571E-03    0.401E-03
DAV:   8    -0.872676808788E+03   -0.26998E-06   -0.24932E-06   608   0.346E-03
  18 F= -.87267681E+03 E0= -.87267681E+03  d E =-.103539E-02
       N       E                     dE             d eps       ncg     rms          rms(c)
DAV:   1    -0.872676707234E+03    0.10128E-03   -0.38307E-01   704   0.120E+00    0.990E-02
DAV:   2    -0.872677407739E+03   -0.70051E-03   -0.76548E-03   768   0.154E-01    0.559E-02
DAV:   3    -0.872677377653E+03    0.30086E-04   -0.12933E-04   824   0.222E-02    0.364E-02
DAV:   4    -0.872677357012E+03    0.20641E-04   -0.13329E-04   808   0.301E-02    0.117E-02
DAV:   5    -0.872677358325E+03   -0.13132E-05   -0.31600E-05   784   0.116E-02    0.115E-02
DAV:   6    -0.872677357321E+03    0.10040E-05   -0.82585E-06   792   0.629E-03    0.582E-03
DAV:   7    -0.872677356961E+03    0.36019E-06   -0.16077E-06   504   0.296E-03
  19 F= -.87267736E+03 E0= -.87267736E+03  d E =-.548173E-03
       N       E                     dE             d eps       ncg     rms          rms(c)
DAV:   1    -0.872677234976E+03    0.12235E-03   -0.19804E-02   704   0.277E-01    0.277E-02
DAV:   2    -0.872677271399E+03   -0.36423E-04   -0.41623E-04   800   0.367E-02    0.138E-02
DAV:   3    -0.872677269204E+03    0.21954E-05   -0.84527E-06   808   0.614E-03    0.869E-03
DAV:   4    -0.872677267845E+03    0.13586E-05   -0.75193E-06   792   0.718E-03    0.294E-03
DAV:   5    -0.872677267863E+03   -0.18132E-07   -0.15817E-06   512   0.292E-03
  20 F= -.87267727E+03 E0= -.87267727E+03  d E =0.890979E-04
       N       E                     dE             d eps       ncg     rms          rms(c)
DAV:   1    -0.872677350455E+03   -0.82610E-04   -0.14820E-01   704   0.749E-01    0.618E-02
DAV:   2    -0.872677621373E+03   -0.27092E-03   -0.29671E-03   768   0.959E-02    0.351E-02
DAV:   3    -0.872677609436E+03    0.11937E-04   -0.50536E-05   832   0.139E-02    0.229E-02
DAV:   4    -0.872677601268E+03    0.81674E-05   -0.52727E-05   816   0.191E-02    0.739E-03
DAV:   5    -0.872677601786E+03   -0.51780E-06   -0.12653E-05   784   0.733E-03    0.735E-03
DAV:   6    -0.872677601382E+03    0.40379E-06   -0.30664E-06   608   0.386E-03
  21 F= -.87267760E+03 E0= -.87267760E+03  d E =-.333519E-03
       N       E                     dE             d eps       ncg     rms          rms(c)
DAV:   1    -0.872677462654E+03    0.13913E-03   -0.38275E-01   704   0.120E+00    0.999E-02
DAV:   2    -0.872678166906E+03   -0.70425E-03   -0.77079E-03   768   0.154E-01    0.563E-02
DAV:   3    -0.872678137435E+03    0.29472E-04   -0.12998E-04   824   0.225E-02    0.368E-02
DAV:   4    -0.872678118160E+03    0.19275E-04   -0.14126E-04   808   0.312E-02    0.125E-02
DAV:   5    -0.872678119195E+03   -0.10355E-05   -0.32483E-05   784   0.119E-02    0.122E-02
DAV:   6    -0.872678118026E+03    0.11687E-05   -0.92278E-06   800   0.663E-03    0.609E-03
DAV:   7    -0.872678117594E+03    0.43220E-06   -0.18648E-06   496   0.319E-03
  22 F= -.87267812E+03 E0= -.87267812E+03  d E =-.516212E-03
       N       E                     dE             d eps       ncg     rms          rms(c)
DAV:   1    -0.872678200239E+03   -0.82212E-04   -0.13364E-01   704   0.712E-01    0.598E-02
DAV:   2    -0.872678446172E+03   -0.24593E-03   -0.26819E-03   768   0.912E-02    0.335E-02
DAV:   3    -0.872678434837E+03    0.11335E-04   -0.43518E-05   832   0.132E-02    0.217E-02
DAV:   4    -0.872678427847E+03    0.69895E-05   -0.50882E-05   808   0.187E-02    0.720E-03
DAV:   5    -0.872678428204E+03   -0.35667E-06   -0.12002E-05   784   0.720E-03    0.718E-03
DAV:   6    -0.872678427809E+03    0.39542E-06   -0.26245E-06   568   0.356E-03
  23 F= -.87267843E+03 E0= -.87267843E+03  d E =-.310214E-03
       N       E                     dE             d eps       ncg     rms          rms(c)
DAV:   1    -0.872678249377E+03    0.17883E-03   -0.28431E-02   704   0.328E-01    0.315E-02
DAV:   2    -0.872678301126E+03   -0.51749E-04   -0.57993E-04   776   0.428E-02    0.163E-02
DAV:   3    -0.872678298082E+03    0.30440E-05   -0.10928E-05   832   0.679E-03    0.103E-02
DAV:   4    -0.872678296301E+03    0.17812E-05   -0.11404E-05   776   0.860E-03    0.346E-03
DAV:   5    -0.872678296328E+03   -0.27605E-07   -0.23337E-06   592   0.345E-03
  24 F= -.87267830E+03 E0= -.87267830E+03  d E =0.131480E-03
       N       E                     dE             d eps       ncg     rms          rms(c)
DAV:   1    -0.872678313128E+03   -0.16827E-04   -0.12867E-03   720   0.720E-02    0.122E-02
DAV:   2    -0.872678315710E+03   -0.25823E-05   -0.33827E-05   824   0.108E-02    0.487E-03
DAV:   3    -0.872678315203E+03    0.50756E-06   -0.80477E-07   488   0.252E-03
  25 F= -.87267832E+03 E0= -.87267832E+03  d E =-.188743E-04
       N       E                     dE             d eps       ncg     rms          rms(c)
DAV:   1    -0.872678416117E+03   -0.10041E-03   -0.92478E-02   704   0.592E-01    0.495E-02
DAV:   2    -0.872678583947E+03   -0.16783E-03   -0.18392E-03   760   0.756E-02    0.278E-02
DAV:   3    -0.872678576558E+03    0.73899E-05   -0.31025E-05   824   0.110E-02    0.180E-02
DAV:   4    -0.872678571799E+03    0.47590E-05   -0.32160E-05   808   0.150E-02    0.583E-03
DAV:   5    -0.872678572106E+03   -0.30763E-06   -0.77049E-06   752   0.573E-03
  26 F= -.87267857E+03 E0= -.87267857E+03  d E =-.256904E-03
       N       E                     dE             d eps       ncg     rms          rms(c)
DAV:   1    -0.872678656720E+03   -0.84921E-04   -0.10410E-01   704   0.629E-01    0.544E-02
DAV:   2    -0.872678847762E+03   -0.19104E-03   -0.20968E-03   760   0.810E-02    0.292E-02
DAV:   3    -0.872678839921E+03    0.78415E-05   -0.35667E-05   824   0.119E-02    0.188E-02
DAV:   4    -0.872678835045E+03    0.48759E-05   -0.34877E-05   808   0.158E-02    0.628E-03
DAV:   5    -0.872678835401E+03   -0.35641E-06   -0.83905E-06   760   0.597E-03
  27 F= -.87267884E+03 E0= -.87267884E+03  d E =-.263295E-03
       N       E                     dE             d eps       ncg     rms          rms(c)
DAV:   1    -0.872678915996E+03   -0.80951E-04   -0.30385E-02   720   0.341E-01    0.359E-02
DAV:   2    -0.872678972888E+03   -0.56892E-04   -0.64308E-04   776   0.455E-02    0.163E-02
DAV:   3    -0.872678969543E+03    0.33453E-05   -0.11925E-05   824   0.769E-03    0.102E-02
DAV:   4    -0.872678967632E+03    0.19111E-05   -0.11686E-05   800   0.972E-03    0.355E-03
DAV:   5    -0.872678967726E+03   -0.94107E-07   -0.32387E-06   656   0.391E-03
  28 F= -.87267897E+03 E0= -.87267897E+03  d E =-.132324E-03
       N       E                     dE             d eps       ncg     rms          rms(c)
DAV:   1    -0.872679063063E+03   -0.95431E-04   -0.85517E-02   704   0.570E-01    0.510E-02
DAV:   2    -0.872679219987E+03   -0.15692E-03   -0.17396E-03   768   0.740E-02    0.272E-02
DAV:   3    -0.872679212855E+03    0.71321E-05   -0.30776E-05   824   0.113E-02    0.175E-02
DAV:   4    -0.872679208604E+03    0.42515E-05   -0.31200E-05   808   0.148E-02    0.601E-03
DAV:   5    -0.872679208829E+03   -0.22497E-06   -0.72377E-06   752   0.572E-03
  29 F= -.87267921E+03 E0= -.87267921E+03  d E =-.241103E-03
       N       E                     dE             d eps       ncg     rms          rms(c)
DAV:   1    -0.872679108746E+03    0.99857E-04   -0.11741E-02   704   0.213E-01    0.247E-02
DAV:   2    -0.872679130378E+03   -0.21632E-04   -0.25111E-04   792   0.288E-02    0.118E-02
DAV:   3    -0.872679128083E+03    0.22951E-05   -0.48491E-06   712   0.509E-03    0.704E-03
DAV:   4    -0.872679126834E+03    0.12488E-05   -0.48285E-06   776   0.582E-03    0.173E-03
DAV:   5    -0.872679126896E+03   -0.61686E-07   -0.13625E-06   472   0.260E-03
  30 F= -.87267913E+03 E0= -.87267913E+03  d E =0.819329E-04
       N       E                     dE             d eps       ncg     rms          rms(c)
DAV:   1    -0.872679163288E+03   -0.36454E-04   -0.24363E-03   720   0.980E-02    0.149E-02
DAV:   2    -0.872679167790E+03   -0.45023E-05   -0.57186E-05   808   0.141E-02    0.582E-03
DAV:   3    -0.872679167031E+03    0.75898E-06   -0.13410E-06   520   0.312E-03
  31 F= -.87267917E+03 E0= -.87267917E+03  d E =-.401353E-04
       N       E                     dE             d eps       ncg     rms          rms(c)
DAV:   1    -0.872679246978E+03   -0.79188E-04   -0.20297E-02   704   0.278E-01    0.237E-02
DAV:   2    -0.872679282708E+03   -0.35730E-04   -0.39286E-04   760   0.351E-02    0.131E-02
DAV:   3    -0.872679280999E+03    0.17085E-05   -0.65637E-06   760   0.506E-03    0.832E-03
DAV:   4    -0.872679279912E+03    0.10869E-05   -0.61589E-06   776   0.667E-03    0.223E-03
DAV:   5    -0.872679280015E+03   -0.10319E-06   -0.15685E-06   488   0.254E-03
  32 F= -.87267928E+03 E0= -.87267928E+03  d E =-.112984E-03
       N       E                     dE             d eps       ncg     rms          rms(c)
DAV:   1    -0.872679325152E+03   -0.45240E-04   -0.40655E-03   720   0.125E-01    0.129E-02
DAV:   2    -0.872679333030E+03   -0.78771E-05   -0.89330E-05   776   0.170E-02    0.639E-03
DAV:   3    -0.872679332613E+03    0.41623E-06   -0.15255E-06   560   0.293E-03
  33 F= -.87267933E+03 E0= -.87267933E+03  d E =-.525979E-04
       N       E                     dE             d eps       ncg     rms          rms(c)
DAV:   1    -0.872679376258E+03   -0.43229E-04   -0.37250E-03   720   0.119E-01    0.106E-02
DAV:   2    -0.872679382430E+03   -0.61719E-05   -0.70425E-05   776   0.150E-02    0.572E-03
DAV:   3    -0.872679382191E+03    0.23909E-06   -0.15018E-06   536   0.247E-03
  34 F= -.87267938E+03 E0= -.87267938E+03  d E =-.495777E-04
       N       E                     dE             d eps       ncg     rms          rms(c)
DAV:   1    -0.872679452497E+03   -0.70067E-04   -0.12793E-02   704   0.221E-01    0.193E-02
DAV:   2    -0.872679474930E+03   -0.22433E-04   -0.24864E-04   768   0.280E-02    0.107E-02
DAV:   3    -0.872679473905E+03    0.10252E-05   -0.44172E-06   712   0.418E-03    0.677E-03
DAV:   4    -0.872679473323E+03    0.58203E-06   -0.41700E-06   744   0.537E-03
  35 F= -.87267947E+03 E0= -.87267947E+03  d E =-.911318E-04
       N       E                     dE             d eps       ncg     rms          rms(c)
DAV:   1    -0.872678543745E+03    0.93016E-03   -0.10212E+00   704   0.197E+00    0.166E-01
DAV:   2    -0.872680397311E+03   -0.18536E-02   -0.20290E-02   760   0.252E-01    0.938E-02
DAV:   3    -0.872680316360E+03    0.80951E-04   -0.33683E-04   824   0.367E-02    0.607E-02
DAV:   4    -0.872680266533E+03    0.49827E-04   -0.36396E-04   808   0.507E-02    0.198E-02
DAV:   5    -0.872680269660E+03   -0.31270E-05   -0.85913E-05   784   0.192E-02    0.197E-02
DAV:   6    -0.872680266626E+03    0.30346E-05   -0.22768E-05   816   0.104E-02    0.100E-02
DAV:   7    -0.872680265502E+03    0.11234E-05   -0.52333E-06   760   0.512E-03    0.376E-03
DAV:   8    -0.872680265719E+03   -0.21633E-06   -0.22514E-06   568   0.328E-03
  36 F= -.87268027E+03 E0= -.87268027E+03  d E =-.792396E-03
       N       E                     dE             d eps       ncg     rms          rms(c)
DAV:   1    -0.872680147063E+03    0.11844E-03   -0.33176E-01   704   0.113E+00    0.932E-02
DAV:   2    -0.872680749932E+03   -0.60287E-03   -0.65767E-03   760   0.144E-01    0.535E-02
DAV:   3    -0.872680722995E+03    0.26938E-04   -0.10664E-04   816   0.205E-02    0.346E-02
DAV:   4    -0.872680706466E+03    0.16529E-04   -0.11956E-04   808   0.288E-02    0.111E-02
DAV:   5    -0.872680707417E+03   -0.95048E-06   -0.28154E-05   784   0.110E-02    0.110E-02
DAV:   6    -0.872680706469E+03    0.94734E-06   -0.70924E-06   768   0.581E-03
  37 F= -.87268071E+03 E0= -.87268071E+03  d E =-.440751E-03
       N       E                     dE             d eps       ncg     rms          rms(c)
DAV:   1    -0.872679541990E+03    0.11654E-02   -0.40727E-01   704   0.125E+00    0.103E-01
DAV:   2    -0.872680279009E+03   -0.73702E-03   -0.80685E-03   760   0.159E-01    0.596E-02
DAV:   3    -0.872680245254E+03    0.33754E-04   -0.13467E-04   816   0.232E-02    0.388E-02
DAV:   4    -0.872680224451E+03    0.20804E-04   -0.15381E-04   808   0.325E-02    0.131E-02
DAV:   5    -0.872680225363E+03   -0.91275E-06   -0.34833E-05   784   0.124E-02    0.128E-02
DAV:   6    -0.872680224100E+03    0.12634E-05   -0.99773E-06   808   0.692E-03    0.638E-03
DAV:   7    -0.872680223617E+03    0.48331E-06   -0.20258E-06   520   0.333E-03
  38 F= -.87268022E+03 E0= -.87268022E+03  d E =0.482853E-03
       N       E                     dE             d eps       ncg     rms          rms(c)
DAV:   1    -0.872678946677E+03    0.12774E-02   -0.12635E+00   704   0.220E+00    0.183E-01
DAV:   2    -0.872681231989E+03   -0.22853E-02   -0.25044E-02   760   0.280E-01    0.105E-01
DAV:   3    -0.872681132287E+03    0.99701E-04   -0.41833E-04   816   0.406E-02    0.679E-02
DAV:   4    -0.872681070062E+03    0.62226E-04   -0.44665E-04   808   0.557E-02    0.221E-02
DAV:   5    -0.872681073752E+03   -0.36907E-05   -0.10416E-04   784   0.212E-02    0.217E-02
DAV:   6    -0.872681069998E+03    0.37539E-05   -0.29119E-05   816   0.118E-02    0.109E-02
DAV:   7    -0.872681068692E+03    0.13062E-05   -0.62511E-06   776   0.552E-03    0.421E-03
DAV:   8    -0.872681068946E+03   -0.25357E-06   -0.27301E-06   624   0.360E-03
  39 F= -.87268107E+03 E0= -.87268107E+03  d E =-.845329E-03
       N       E                     dE             d eps       ncg     rms          rms(c)
DAV:   1    -0.872680859871E+03    0.20882E-03   -0.38300E-01   704   0.121E+00    0.101E-01
DAV:   2    -0.872681553549E+03   -0.69368E-03   -0.75718E-03   760   0.154E-01    0.577E-02
DAV:   3    -0.872681522032E+03    0.31517E-04   -0.12258E-04   816   0.221E-02    0.373E-02
DAV:   4    -0.872681502788E+03    0.19244E-04   -0.13714E-04   816   0.310E-02    0.118E-02
DAV:   5    -0.872681503947E+03   -0.11589E-05   -0.32835E-05   784   0.119E-02    0.118E-02
DAV:   6    -0.872681502882E+03    0.10651E-05   -0.77912E-06   784   0.606E-03    0.616E-03
DAV:   7    -0.872681502422E+03    0.45960E-06   -0.18404E-06   512   0.324E-03
  40 F= -.87268150E+03 E0= -.87268150E+03  d E =-.433476E-03
       N       E                     dE             d eps       ncg     rms          rms(c)
DAV:   1    -0.872676673030E+03    0.48299E-02   -0.22313E+00   704   0.292E+00    0.244E-01
DAV:   2    -0.872680715146E+03   -0.40421E-02   -0.44214E-02   760   0.373E-01    0.139E-01
DAV:   3    -0.872680535353E+03    0.17979E-03   -0.73597E-04   816   0.539E-02    0.900E-02
DAV:   4    -0.872680424295E+03    0.11106E-03   -0.78189E-04   808   0.740E-02    0.289E-02
DAV:   5    -0.872680431278E+03   -0.69828E-05   -0.18422E-04   784   0.281E-02    0.286E-02
DAV:   6    -0.872680424783E+03    0.64955E-05   -0.50086E-05   816   0.155E-02    0.144E-02
DAV:   7    -0.872680422484E+03    0.22989E-05   -0.10906E-05   808   0.729E-03    0.550E-03
DAV:   8    -0.872680422949E+03   -0.46526E-06   -0.47016E-06   736   0.459E-03
  41 F= -.87268042E+03 E0= -.87268042E+03  d E =0.107947E-02
       N       E                     dE             d eps       ncg     rms          rms(c)
DAV:   1    -0.872680399397E+03    0.23086E-04   -0.21870E-01   704   0.915E-01    0.785E-02
DAV:   2    -0.872680798254E+03   -0.39886E-03   -0.44010E-03   768   0.118E-01    0.436E-02
DAV:   3    -0.872680780128E+03    0.18126E-04   -0.76126E-05   824   0.174E-02    0.282E-02
DAV:   4    -0.872680768798E+03    0.11329E-04   -0.77696E-05   808   0.231E-02    0.936E-03
DAV:   5    -0.872680769420E+03   -0.62169E-06   -0.18025E-05   784   0.891E-03    0.915E-03
DAV:   6    -0.872680768759E+03    0.66053E-06   -0.50129E-06   720   0.494E-03
  42 F= -.87268077E+03 E0= -.87268077E+03  d E =-.345811E-03
       N       E                     dE             d eps       ncg     rms          rms(c)
DAV:   1    -0.872680833858E+03   -0.64438E-04   -0.11086E-02   704   0.207E-01    0.258E-02
DAV:   2    -0.872680854653E+03   -0.20795E-04   -0.24306E-04   800   0.283E-02    0.109E-02
DAV:   3    -0.872680852834E+03    0.18192E-05   -0.48293E-06   808   0.525E-03    0.660E-03
DAV:   4    -0.872680852016E+03    0.81868E-06   -0.50474E-06   744   0.622E-03
  43 F= -.87268085E+03 E0= -.87268085E+03  d E =-.832561E-04
       N       E                     dE             d eps       ncg     rms          rms(c)
DAV:   1    -0.872680931195E+03   -0.78360E-04   -0.37398E-02   704   0.377E-01    0.341E-02
DAV:   2    -0.872680999112E+03   -0.67918E-04   -0.75496E-04   776   0.489E-02    0.186E-02
DAV:   3    -0.872680995922E+03    0.31910E-05   -0.13394E-05   832   0.747E-03    0.119E-02
DAV:   4    -0.872680994115E+03    0.18070E-05   -0.13857E-05   792   0.977E-03    0.402E-03
DAV:   5    -0.872680994199E+03   -0.84219E-07   -0.30810E-06   632   0.378E-03
  44 F= -.87268099E+03 E0= -.87268099E+03  d E =-.142183E-03
       N       E                     dE             d eps       ncg     rms          rms(c)
DAV:   1    -0.872680944397E+03    0.49717E-04   -0.42455E-03   704   0.127E-01    0.128E-02
DAV:   2    -0.872680951838E+03   -0.74406E-05   -0.85228E-05   792   0.167E-02    0.688E-03
DAV:   3    -0.872680951163E+03    0.67479E-06   -0.14350E-06   552   0.279E-03
  45 F= -.87268095E+03 E0= -.87268095E+03  d E =0.430355E-04
       N       E                     dE             d eps       ncg     rms          rms(c)
DAV:   1    -0.872680959013E+03   -0.71745E-05   -0.30565E-04   720   0.350E-02    0.566E-03
DAV:   2    -0.872680959710E+03   -0.69744E-06   -0.89936E-06   824   0.565E-03
  46 F= -.87268096E+03 E0= -.87268096E+03  d E =-.854676E-05
       N       E                     dE             d eps       ncg     rms          rms(c)
DAV:   1    -0.872681013523E+03   -0.54510E-04   -0.12302E-02   704   0.219E-01    0.254E-02
DAV:   2    -0.872681036050E+03   -0.22527E-04   -0.25870E-04   784   0.291E-02    0.112E-02
DAV:   3    -0.872681034050E+03    0.19998E-05   -0.48683E-06   800   0.516E-03    0.678E-03
DAV:   4    -0.872681033023E+03    0.10276E-05   -0.49579E-06   760   0.633E-03    0.193E-03
DAV:   5    -0.872681033097E+03   -0.73735E-07   -0.14800E-06   472   0.261E-03
  47 F= -.87268103E+03 E0= -.87268103E+03  d E =-.733866E-04
       N       E                     dE             d eps       ncg     rms          rms(c)
DAV:   1    -0.872681092968E+03   -0.59945E-04   -0.12826E-02   704   0.220E-01    0.235E-02
DAV:   2    -0.872681116141E+03   -0.23173E-04   -0.26526E-04   792   0.293E-02    0.114E-02
DAV:   3    -0.872681114600E+03    0.15417E-05   -0.51851E-06   776   0.494E-03    0.702E-03
DAV:   4    -0.872681113777E+03    0.82305E-06   -0.45788E-06   736   0.564E-03
  48 F= -.87268111E+03 E0= -.87268111E+03  d E =-.806800E-04
       N       E                     dE             d eps       ncg     rms          rms(c)
DAV:   1    -0.872681116296E+03   -0.16965E-05   -0.13536E-03   720   0.726E-02    0.188E-02
DAV:   2    -0.872681118323E+03   -0.20268E-05   -0.41855E-05   824   0.127E-02    0.601E-03
DAV:   3    -0.872681117166E+03    0.11571E-05   -0.17495E-06   528   0.412E-03    0.330E-03
DAV:   4    -0.872681116669E+03    0.49709E-06   -0.18637E-06   504   0.418E-03
  49 F= -.87268112E+03 E0= -.87268112E+03  d E =-.289212E-05
       N       E                     dE             d eps       ncg     rms          rms(c)
DAV:   1    -0.872681148829E+03   -0.31663E-04   -0.22320E-03   720   0.936E-02    0.134E-02
DAV:   2    -0.872681152890E+03   -0.40609E-05   -0.51400E-05   800   0.133E-02    0.541E-03
DAV:   3    -0.872681152324E+03    0.56623E-06   -0.11842E-06   520   0.291E-03
  50 F= -.87268115E+03 E0= -.87268115E+03  d E =-.356549E-04
       N       E                     dE             d eps       ncg     rms          rms(c)
DAV:   1    -0.872681201835E+03   -0.48945E-04   -0.71443E-03   704   0.165E-01    0.144E-02
DAV:   2    -0.872681214179E+03   -0.12344E-04   -0.13708E-04   776   0.208E-02    0.801E-03
DAV:   3    -0.872681213557E+03    0.62155E-06   -0.22377E-06   584   0.308E-03
  51 F= -.87268121E+03 E0= -.87268121E+03  d E =-.612338E-04
       N       E                     dE             d eps       ncg     rms          rms(c)
DAV:   1    -0.872681229746E+03   -0.15567E-04   -0.53370E-04   728   0.447E-02    0.446E-03
DAV:   2    -0.872681230433E+03   -0.68664E-06   -0.82991E-06   744   0.517E-03
  52 F= -.87268123E+03 E0= -.87268123E+03  d E =-.168754E-04
       N       E                     dE             d eps       ncg     rms          rms(c)
DAV:   1    -0.872681301436E+03   -0.71690E-04   -0.57158E-02   704   0.466E-01    0.430E-02
DAV:   2    -0.872681404279E+03   -0.10284E-03   -0.11454E-03   776   0.602E-02    0.240E-02
DAV:   3    -0.872681398925E+03    0.53546E-05   -0.20154E-05   832   0.932E-03    0.153E-02
DAV:   4    -0.872681396275E+03    0.26497E-05   -0.23803E-05   816   0.124E-02    0.524E-03
DAV:   5    -0.872681396303E+03   -0.28478E-07   -0.50517E-06   720   0.492E-03
  53 F= -.87268140E+03 E0= -.87268140E+03  d E =-.165871E-03
       N       E                     dE             d eps       ncg     rms          rms(c)
DAV:   1    -0.872680838449E+03    0.55783E-03   -0.68770E-01   704   0.162E+00    0.139E-01
DAV:   2    -0.872682085027E+03   -0.12466E-02   -0.13669E-02   760   0.207E-01    0.781E-02
DAV:   3    -0.872682029691E+03    0.55336E-04   -0.22497E-04   832   0.302E-02    0.503E-02
DAV:   4    -0.872681996929E+03    0.32762E-04   -0.24692E-04   816   0.418E-02    0.164E-02
DAV:   5    -0.872681998886E+03   -0.19566E-05   -0.58700E-05   784   0.159E-02    0.162E-02
DAV:   6    -0.872681996798E+03    0.20878E-05   -0.14895E-05   816   0.834E-03    0.840E-03
DAV:   7    -0.872681995979E+03    0.81885E-06   -0.35030E-06   640   0.429E-03
  54 F= -.87268200E+03 E0= -.87268200E+03  d E =-.599676E-03
       N       E                     dE             d eps       ncg     rms          rms(c)
DAV:   1    -0.872681721869E+03    0.27493E-03   -0.60971E-02   704   0.482E-01    0.423E-02
DAV:   2    -0.872681830021E+03   -0.10815E-03   -0.11999E-03   768   0.616E-02    0.234E-02
DAV:   3    -0.872681824970E+03    0.50512E-05   -0.21788E-05   832   0.930E-03    0.149E-02
DAV:   4    -0.872681821788E+03    0.31813E-05   -0.18535E-05   816   0.114E-02    0.455E-03
DAV:   5    -0.872681822014E+03   -0.22614E-06   -0.45646E-06   704   0.447E-03
  55 F= -.87268182E+03 E0= -.87268182E+03  d E =0.173964E-03
       N       E                     dE             d eps       ncg     rms          rms(c)
DAV:   1    -0.872680120454E+03    0.17013E-02   -0.65858E-01   704   0.159E+00    0.136E-01
DAV:   2    -0.872681316799E+03   -0.11963E-02   -0.13106E-02   760   0.203E-01    0.773E-02
DAV:   3    -0.872681264193E+03    0.52606E-04   -0.21623E-04   816   0.297E-02    0.499E-02
DAV:   4    -0.872681234658E+03    0.29535E-04   -0.24736E-04   816   0.414E-02    0.169E-02
DAV:   5    -0.872681235946E+03   -0.12885E-05   -0.55895E-05   784   0.157E-02    0.163E-02
DAV:   6    -0.872681233795E+03    0.21516E-05   -0.16241E-05   816   0.875E-03    0.808E-03
DAV:   7    -0.872681233042E+03    0.75233E-06   -0.33626E-06   608   0.414E-03
  56 F= -.87268123E+03 E0= -.87268123E+03  d E =0.588972E-03
       N       E                     dE             d eps       ncg     rms          rms(c)
DAV:   1    -0.872681243648E+03   -0.98529E-05   -0.64780E-04   720   0.502E-02    0.106E-02
DAV:   2    -0.872681244638E+03   -0.99073E-06   -0.18300E-05   824   0.848E-03    0.418E-03
DAV:   3    -0.872681244293E+03    0.34522E-06   -0.93322E-07   488   0.264E-03
  57 F= -.87268124E+03 E0= -.87268124E+03  d E =-.112507E-04
       N       E                     dE             d eps       ncg     rms          rms(c)
DAV:   1    -0.872681219322E+03    0.25316E-04   -0.12648E-03   720   0.697E-02    0.826E-03
DAV:   2    -0.872681221879E+03   -0.25564E-05   -0.29014E-05   784   0.977E-03    0.393E-03
DAV:   3    -0.872681221661E+03    0.21800E-06   -0.46797E-07   440   0.179E-03
  58 F= -.87268122E+03 E0= -.87268122E+03  d E =0.226324E-04
       N       E                     dE             d eps       ncg     rms          rms(c)
DAV:   1    -0.872681270952E+03   -0.49073E-04   -0.11940E-02   704   0.215E-01    0.216E-02
DAV:   2    -0.872681292950E+03   -0.21999E-04   -0.24632E-04   784   0.283E-02    0.104E-02
DAV:   3    -0.872681291346E+03    0.16046E-05   -0.41070E-06   696   0.464E-03    0.640E-03
DAV:   4    -0.872681290341E+03    0.10042E-05   -0.42286E-06   752   0.606E-03    0.162E-03
DAV:   5    -0.872681290431E+03   -0.89742E-07   -0.14461E-06   488   0.252E-03
  59 F= -.87268129E+03 E0= -.87268129E+03  d E =-.687705E-04
       N       E                     dE             d eps       ncg     rms          rms(c)
DAV:   1    -0.872681318029E+03   -0.27687E-04   -0.15947E-03   720   0.792E-02    0.124E-02
DAV:   2    -0.872681320957E+03   -0.29279E-05   -0.39411E-05   816   0.119E-02    0.482E-03
DAV:   3    -0.872681320514E+03    0.44285E-06   -0.10700E-06   512   0.280E-03
  60 F= -.87268132E+03 E0= -.87268132E+03  d E =-.300825E-04
       N       E                     dE             d eps       ncg     rms          rms(c)
DAV:   1    -0.872681375660E+03   -0.54704E-04   -0.11941E-02   704   0.214E-01    0.205E-02
DAV:   2    -0.872681396918E+03   -0.21257E-04   -0.23970E-04   776   0.278E-02    0.107E-02
DAV:   3    -0.872681395716E+03    0.12017E-05   -0.44425E-06   736   0.450E-03    0.677E-03
DAV:   4    -0.872681395041E+03    0.67452E-06   -0.46526E-06   752   0.577E-03
  61 F= -.87268140E+03 E0= -.87268140E+03  d E =-.745276E-04
       N       E                     dE             d eps       ncg     rms          rms(c)
DAV:   1    -0.872681421205E+03   -0.25489E-04   -0.20154E-03   720   0.889E-02    0.153E-02
DAV:   2    -0.872681424660E+03   -0.34551E-05   -0.48712E-05   816   0.131E-02    0.538E-03
DAV:   3    -0.872681423999E+03    0.66189E-06   -0.14724E-06   528   0.331E-03
  62 F= -.87268142E+03 E0= -.87268142E+03  d E =-.289572E-04
       N       E                     dE             d eps       ncg     rms          rms(c)
DAV:   1    -0.872681474382E+03   -0.49721E-04   -0.79523E-03   704   0.174E-01    0.159E-02
DAV:   2    -0.872681488168E+03   -0.13786E-04   -0.15360E-04   776   0.221E-02    0.861E-03
DAV:   3    -0.872681487386E+03    0.78200E-06   -0.25586E-06   608   0.336E-03
  63 F= -.87268149E+03 E0= -.87268149E+03  d E =-.633873E-04
       N       E                     dE             d eps       ncg     rms          rms(c)
DAV:   1    -0.872681504457E+03   -0.16289E-04   -0.52420E-04   720   0.446E-02    0.583E-03
DAV:   2    -0.872681505195E+03   -0.73728E-06   -0.94443E-06   784   0.564E-03
  64 F= -.87268151E+03 E0= -.87268151E+03  d E =-.178087E-04
       N       E                     dE             d eps       ncg     rms          rms(c)
DAV:   1    -0.872681580444E+03   -0.75987E-04   -0.28715E-02   704   0.331E-01    0.292E-02
DAV:   2    -0.872681632042E+03   -0.51598E-04   -0.56892E-04   768   0.423E-02    0.170E-02
DAV:   3    -0.872681629535E+03    0.25068E-05   -0.95915E-06   824   0.636E-03    0.109E-02
DAV:   4    -0.872681628307E+03    0.12282E-05   -0.11889E-05   800   0.889E-03    0.368E-03
DAV:   5    -0.872681628329E+03   -0.21748E-07   -0.25036E-06   600   0.345E-03
  65 F= -.87268163E+03 E0= -.87268163E+03  d E =-.123134E-03
       N       E                     dE             d eps       ncg     rms          rms(c)
DAV:   1    -0.872681632371E+03   -0.40638E-05   -0.15986E-03   720   0.791E-02    0.187E-02
DAV:   2    -0.872681635141E+03   -0.27699E-05   -0.47090E-05   824   0.131E-02    0.605E-03
DAV:   3    -0.872681633990E+03    0.11505E-05   -0.16963E-06   520   0.394E-03    0.333E-03
DAV:   4    -0.872681633490E+03    0.50011E-06   -0.19703E-06   560   0.409E-03
  66 F= -.87268163E+03 E0= -.87268163E+03  d E =-.516132E-05
       N       E                     dE             d eps       ncg     rms          rms(c)
DAV:   1    -0.872681659621E+03   -0.25631E-04   -0.14426E-03   720   0.753E-02    0.148E-02
DAV:   2    -0.872681662077E+03   -0.24558E-05   -0.38207E-05   824   0.118E-02    0.520E-03
DAV:   3    -0.872681661378E+03    0.69876E-06   -0.13024E-06   520   0.327E-03
  67 F= -.87268166E+03 E0= -.87268166E+03  d E =-.278879E-04
       N       E                     dE             d eps       ncg     rms          rms(c)
DAV:   1    -0.872681717401E+03   -0.55325E-04   -0.12641E-02   704   0.220E-01    0.216E-02
DAV:   2    -0.872681740016E+03   -0.22614E-04   -0.25451E-04   776   0.286E-02    0.110E-02
DAV:   3    -0.872681738653E+03    0.13624E-05   -0.46094E-06   704   0.464E-03    0.690E-03
DAV:   4    -0.872681737883E+03    0.77020E-06   -0.46691E-06   760   0.580E-03
  68 F= -.87268174E+03 E0= -.87268174E+03  d E =-.765050E-04
       N       E                     dE             d eps       ncg     rms          rms(c)
DAV:   1    -0.872681761700E+03   -0.23047E-04   -0.17822E-03   720   0.833E-02    0.150E-02
DAV:   2    -0.872681764602E+03   -0.29013E-05   -0.43076E-05   816   0.124E-02    0.529E-03
DAV:   3    -0.872681763941E+03    0.66073E-06   -0.13581E-06   512   0.327E-03
  69 F= -.87268176E+03 E0= -.87268176E+03  d E =-.260579E-04
       N       E                     dE             d eps       ncg     rms          rms(c)
DAV:   1    -0.872681815696E+03   -0.51094E-04   -0.88028E-03   704   0.183E-01    0.169E-02
DAV:   2    -0.872681831115E+03   -0.15419E-04   -0.17172E-04   768   0.234E-02    0.908E-03
DAV:   3    -0.872681830272E+03    0.84336E-06   -0.29704E-06   648   0.356E-03
  70 F= -.87268183E+03 E0= -.87268183E+03  d E =-.663307E-04
       N       E                     dE             d eps       ncg     rms          rms(c)
DAV:   1    -0.872681845294E+03   -0.14179E-04   -0.40067E-04   720   0.390E-02    0.553E-03
DAV:   2    -0.872681845817E+03   -0.52285E-06   -0.72360E-06   776   0.500E-03
  71 F= -.87268185E+03 E0= -.87268185E+03  d E =-.155455E-04
       N       E                     dE             d eps       ncg     rms          rms(c)
DAV:   1    -0.872681904663E+03   -0.59369E-04   -0.11113E-02   704   0.206E-01    0.186E-02
DAV:   2    -0.872681924702E+03   -0.20039E-04   -0.22122E-04   776   0.264E-02    0.107E-02
DAV:   3    -0.872681923692E+03    0.10105E-05   -0.36397E-06   696   0.401E-03    0.683E-03
DAV:   4    -0.872681923249E+03    0.44244E-06   -0.49186E-06   752   0.568E-03
  72 F= -.87268192E+03 E0= -.87268192E+03  d E =-.774320E-04
       N       E                     dE             d eps       ncg     rms          rms(c)
DAV:   1    -0.872681954315E+03   -0.30623E-04   -0.13904E-01   704   0.728E-01    0.649E-02
DAV:   2    -0.872682207106E+03   -0.25279E-03   -0.27825E-03   760   0.937E-02    0.361E-02
DAV:   3    -0.872682195928E+03    0.11178E-04   -0.47692E-05   832   0.140E-02    0.232E-02
DAV:   4    -0.872682189503E+03    0.64250E-05   -0.51519E-05   808   0.189E-02    0.780E-03
DAV:   5    -0.872682189767E+03   -0.26408E-06   -0.11647E-05   784   0.728E-03    0.743E-03
DAV:   6    -0.872682189312E+03    0.45526E-06   -0.34292E-06   640   0.408E-03
  73 F= -.87268219E+03 E0= -.87268219E+03  d E =-.266062E-03
       N       E                     dE             d eps       ncg     rms          rms(c)
DAV:   1    -0.872682214171E+03   -0.24404E-04   -0.14937E-01   704   0.755E-01    0.659E-02
DAV:   2    -0.872682486515E+03   -0.27234E-03   -0.29755E-03   760   0.968E-02    0.369E-02
DAV:   3    -0.872682474365E+03    0.12150E-04   -0.48362E-05   832   0.139E-02    0.236E-02
DAV:   4    -0.872682467340E+03    0.70243E-05   -0.51569E-05   816   0.189E-02    0.725E-03
DAV:   5    -0.872682467781E+03   -0.44073E-06   -0.12238E-05   784   0.726E-03    0.717E-03
DAV:   6    -0.872682467373E+03    0.40758E-06   -0.29899E-06   624   0.381E-03
  74 F= -.87268247E+03 E0= -.87268247E+03  d E =-.278062E-03
       N       E                     dE             d eps       ncg     rms          rms(c)
DAV:   1    -0.872682527082E+03   -0.59301E-04   -0.81102E-02   704   0.557E-01    0.480E-02
DAV:   2    -0.872682676126E+03   -0.14904E-03   -0.16242E-03   760   0.714E-02    0.273E-02
DAV:   3    -0.872682669717E+03    0.64090E-05   -0.25896E-05   824   0.103E-02    0.176E-02
DAV:   4    -0.872682666114E+03    0.36032E-05   -0.29738E-05   816   0.143E-02    0.568E-03
DAV:   5    -0.872682666285E+03   -0.17123E-06   -0.67676E-06   736   0.547E-03
  75 F= -.87268267E+03 E0= -.87268267E+03  d E =-.198912E-03
       N       E                     dE             d eps       ncg     rms          rms(c)
DAV:   1    -0.872681679880E+03    0.98623E-03   -0.34286E-01   704   0.114E+00    0.964E-02
DAV:   2    -0.872682298207E+03   -0.61833E-03   -0.67533E-03   760   0.146E-01    0.567E-02
DAV:   3    -0.872682269450E+03    0.28757E-04   -0.11017E-04   832   0.209E-02    0.367E-02
DAV:   4    -0.872682252281E+03    0.17169E-04   -0.12338E-04   816   0.289E-02    0.113E-02
DAV:   5    -0.872682253150E+03   -0.86867E-06   -0.28517E-05   784   0.112E-02    0.111E-02
DAV:   6    -0.872682252201E+03    0.94856E-06   -0.77774E-06   792   0.611E-03
  76 F= -.87268225E+03 E0= -.87268225E+03  d E =0.414084E-03
       N       E                     dE             d eps       ncg     rms          rms(c)
DAV:   1    -0.872682297187E+03   -0.44037E-04   -0.49775E-03   704   0.137E-01    0.118E-02
DAV:   2    -0.872682305424E+03   -0.82364E-05   -0.92677E-05   776   0.172E-02    0.728E-03
DAV:   3    -0.872682304843E+03    0.58117E-06   -0.15223E-06   560   0.267E-03
  77 F= -.87268230E+03 E0= -.87268230E+03  d E =-.526412E-04
       N       E                     dE             d eps       ncg     rms          rms(c)
DAV:   1    -0.872682104233E+03    0.20119E-03   -0.36063E-02   704   0.371E-01    0.329E-02
DAV:   2    -0.872682171298E+03   -0.67065E-04   -0.73251E-04   760   0.481E-02    0.190E-02
DAV:   3    -0.872682167765E+03    0.35331E-05   -0.11554E-05   832   0.717E-03    0.122E-02
DAV:   4    -0.872682165869E+03    0.18952E-05   -0.15581E-05   816   0.103E-02    0.414E-03
DAV:   5    -0.872682165893E+03   -0.23741E-07   -0.35068E-06   672   0.402E-03
  78 F= -.87268217E+03 E0= -.87268217E+03  d E =0.138950E-03
       N       E                     dE             d eps       ncg     rms          rms(c)
DAV:   1    -0.872682172968E+03   -0.70991E-05   -0.13944E-04   720   0.235E-02    0.398E-03
DAV:   2    -0.872682173117E+03   -0.14859E-06   -0.33540E-06   576   0.373E-03
  79 F= -.87268217E+03 E0= -.87268217E+03  d E =-.722391E-05
       N       E                     dE             d eps       ncg     rms          rms(c)
DAV:   1    -0.872682221241E+03   -0.48273E-04   -0.11843E-01   704   0.672E-01    0.567E-02
DAV:   2    -0.872682431683E+03   -0.21044E-03   -0.23145E-03   760   0.853E-02    0.330E-02
DAV:   3    -0.872682421499E+03    0.10184E-04   -0.38111E-05   832   0.123E-02    0.212E-02
DAV:   4    -0.872682415262E+03    0.62369E-05   -0.40423E-05   816   0.168E-02    0.631E-03
DAV:   5    -0.872682415693E+03   -0.43173E-06   -0.97825E-06   760   0.641E-03
  80 F= -.87268242E+03 E0= -.87268242E+03  d E =-.242576E-03
       N       E                     dE             d eps       ncg     rms          rms(c)
DAV:   1    -0.872682122661E+03    0.29260E-03   -0.66472E-02   704   0.504E-01    0.429E-02
DAV:   2    -0.872682240594E+03   -0.11793E-03   -0.12936E-03   760   0.639E-02    0.255E-02
DAV:   3    -0.872682234056E+03    0.65383E-05   -0.21248E-05   832   0.922E-03    0.163E-02
DAV:   4    -0.872682230035E+03    0.40211E-05   -0.22882E-05   808   0.125E-02    0.436E-03
DAV:   5    -0.872682230283E+03   -0.24850E-06   -0.56502E-06   728   0.492E-03
  81 F= -.87268223E+03 E0= -.87268223E+03  d E =0.185410E-03
       N       E                     dE             d eps       ncg     rms          rms(c)
DAV:   1    -0.872682239182E+03   -0.91468E-05   -0.39109E-04   720   0.393E-02    0.853E-03
DAV:   2    -0.872682239728E+03   -0.54688E-06   -0.10522E-05   824   0.618E-03    0.331E-03
DAV:   3    -0.872682239449E+03    0.27982E-06   -0.38184E-07   480   0.168E-03
  82 F= -.87268224E+03 E0= -.87268224E+03  d E =-.916539E-05
       N       E                     dE             d eps       ncg     rms          rms(c)
DAV:   1    -0.872682293968E+03   -0.54240E-04   -0.18707E-02   704   0.268E-01    0.316E-02
DAV:   2    -0.872682328924E+03   -0.34956E-04   -0.40479E-04   816   0.365E-02    0.149E-02
DAV:   3    -0.872682325914E+03    0.30102E-05   -0.78026E-06   824   0.666E-03    0.917E-03
DAV:   4    -0.872682324514E+03    0.13996E-05   -0.97679E-06   792   0.829E-03    0.326E-03
DAV:   5    -0.872682324507E+03    0.78799E-08   -0.23701E-06   584   0.352E-03
  83 F= -.87268232E+03 E0= -.87268232E+03  d E =-.850579E-04
       N       E                     dE             d eps       ncg     rms          rms(c)
DAV:   1    -0.872682364760E+03   -0.40246E-04   -0.34955E-03   704   0.117E-01    0.210E-02
DAV:   2    -0.872682370845E+03   -0.60846E-05   -0.86573E-05   824   0.175E-02    0.740E-03
DAV:   3    -0.872682369515E+03    0.13297E-05   -0.26392E-06   584   0.431E-03    0.423E-03
DAV:   4    -0.872682368947E+03    0.56811E-06   -0.23801E-06   592   0.419E-03
  84 F= -.87268237E+03 E0= -.87268237E+03  d E =-.444402E-04
       N       E                     dE             d eps       ncg     rms          rms(c)
DAV:   1    -0.872682421724E+03   -0.52209E-04   -0.10696E-02   704   0.203E-01    0.204E-02
DAV:   2    -0.872682441131E+03   -0.19407E-04   -0.21900E-04   784   0.266E-02    0.104E-02
DAV:   3    -0.872682439881E+03    0.12505E-05   -0.39182E-06   712   0.432E-03    0.648E-03
DAV:   4    -0.872682439151E+03    0.72923E-06   -0.41645E-06   752   0.554E-03
  85 F= -.87268244E+03 E0= -.87268244E+03  d E =-.702046E-04
       N       E                     dE             d eps       ncg     rms          rms(c)
DAV:   1    -0.872682465796E+03   -0.25915E-04   -0.19049E-03   720   0.863E-02    0.137E-02
DAV:   2    -0.872682469423E+03   -0.36270E-05   -0.46773E-05   816   0.127E-02    0.544E-03
DAV:   3    -0.872682468925E+03    0.49712E-06   -0.12059E-06   504   0.292E-03
  86 F= -.87268247E+03 E0= -.87268247E+03  d E =-.297741E-04
       N       E                     dE             d eps       ncg     rms          rms(c)
DAV:   1    -0.872682517188E+03   -0.47765E-04   -0.79030E-03   704   0.174E-01    0.161E-02
DAV:   2    -0.872682531062E+03   -0.13874E-04   -0.15493E-04   768   0.223E-02    0.858E-03
DAV:   3    -0.872682530354E+03    0.70829E-06   -0.27029E-06   624   0.340E-03
  87 F= -.87268253E+03 E0= -.87268253E+03  d E =-.614283E-04
       N       E                     dE             d eps       ncg     rms          rms(c)
DAV:   1    -0.872682548756E+03   -0.17694E-04   -0.70589E-04   720   0.518E-02    0.662E-03
DAV:   2    -0.872682549794E+03   -0.10383E-05   -0.12966E-05   792   0.661E-03    0.316E-03
DAV:   3    -0.872682549699E+03    0.95315E-07   -0.46861E-07   424   0.164E-03
  88 F= -.87268255E+03 E0= -.87268255E+03  d E =-.193449E-04
       N       E                     dE             d eps       ncg     rms          rms(c)
DAV:   1    -0.872682569787E+03   -0.19993E-04   -0.26814E-03   704   0.102E-01    0.173E-02
DAV:   2    -0.872682574451E+03   -0.46633E-05   -0.62999E-05   816   0.148E-02    0.619E-03
DAV:   3    -0.872682573434E+03    0.10170E-05   -0.14938E-06   536   0.354E-03    0.354E-03
DAV:   4    -0.872682572890E+03    0.54412E-06   -0.18028E-06   544   0.421E-03
  89 F= -.87268257E+03 E0= -.87268257E+03  d E =-.231910E-04
       N       E                     dE             d eps       ncg     rms          rms(c)
DAV:   1    -0.872682618576E+03   -0.45142E-04   -0.50543E-03   704   0.140E-01    0.167E-02
DAV:   2    -0.872682627951E+03   -0.93751E-05   -0.10945E-04   784   0.191E-02    0.752E-03
DAV:   3    -0.872682627173E+03    0.77829E-06   -0.21721E-06   584   0.354E-03
  90 F= -.87268263E+03 E0= -.87268263E+03  d E =-.542829E-04
       N       E                     dE             d eps       ncg     rms          rms(c)
DAV:   1    -0.872682679752E+03   -0.51802E-04   -0.11474E-02   704   0.210E-01    0.200E-02
DAV:   2    -0.872682699612E+03   -0.19860E-04   -0.22272E-04   776   0.268E-02    0.104E-02
DAV:   3    -0.872682698534E+03    0.10780E-05   -0.41683E-06   704   0.424E-03    0.645E-03
DAV:   4    -0.872682697908E+03    0.62642E-06   -0.35136E-06   704   0.517E-03
  91 F= -.87268270E+03 E0= -.87268270E+03  d E =-.707350E-04
       N       E                     dE             d eps       ncg     rms          rms(c)
DAV:   1    -0.872682723299E+03   -0.24765E-04   -0.18189E-03   720   0.841E-02    0.134E-02
DAV:   2    -0.872682726534E+03   -0.32356E-05   -0.44025E-05   808   0.125E-02    0.528E-03
DAV:   3    -0.872682726015E+03    0.51979E-06   -0.12661E-06   520   0.296E-03
  92 F= -.87268273E+03 E0= -.87268273E+03  d E =-.281071E-04
       N       E                     dE             d eps       ncg     rms          rms(c)
DAV:   1    -0.872682770271E+03   -0.43737E-04   -0.65901E-03   704   0.159E-01    0.156E-02
DAV:   2    -0.872682781751E+03   -0.11479E-04   -0.12974E-04   776   0.205E-02    0.799E-03
DAV:   3    -0.872682781035E+03    0.71566E-06   -0.22754E-06   600   0.329E-03
  93 F= -.87268278E+03 E0= -.87268278E+03  d E =-.550205E-04
       N       E                     dE             d eps       ncg     rms          rms(c)
DAV:   1    -0.872682793576E+03   -0.11826E-04   -0.31810E-04   720   0.349E-02    0.532E-03
DAV:   2    -0.872682794056E+03   -0.47941E-06   -0.62521E-06   760   0.466E-03
  94 F= -.87268279E+03 E0= -.87268279E+03  d E =-.130208E-04
       N       E                     dE             d eps       ncg     rms          rms(c)
DAV:   1    -0.872682846212E+03   -0.52635E-04   -0.15063E-02   704   0.242E-01    0.263E-02
DAV:   2    -0.872682873405E+03   -0.27194E-04   -0.31069E-04   784   0.320E-02    0.126E-02
DAV:   3    -0.872682871326E+03    0.20794E-05   -0.59005E-06   776   0.556E-03    0.771E-03
DAV:   4    -0.872682870273E+03    0.10527E-05   -0.59625E-06   776   0.682E-03    0.230E-03
DAV:   5    -0.872682870337E+03   -0.64298E-07   -0.17054E-06   512   0.287E-03
  95 F= -.87268287E+03 E0= -.87268287E+03  d E =-.762816E-04
       N       E                     dE             d eps       ncg     rms          rms(c)
DAV:   1    -0.872682893644E+03   -0.23370E-04   -0.12515E-03   720   0.704E-02    0.133E-02
DAV:   2    -0.872682895829E+03   -0.21851E-05   -0.32981E-05   824   0.110E-02    0.471E-03
DAV:   3    -0.872682895315E+03    0.51378E-06   -0.10990E-06   504   0.283E-03
  96 F= -.87268290E+03 E0= -.87268290E+03  d E =-.249775E-04
       N       E                     dE             d eps       ncg     rms          rms(c)
DAV:   1    -0.872682946694E+03   -0.50866E-04   -0.11145E-02   704   0.208E-01    0.192E-02
DAV:   2    -0.872682966843E+03   -0.20148E-04   -0.22294E-04   768   0.268E-02    0.102E-02
DAV:   3    -0.872682965796E+03    0.10465E-05   -0.38406E-06   688   0.408E-03    0.646E-03
DAV:   4    -0.872682965195E+03    0.60129E-06   -0.38238E-06   728   0.522E-03
  97 F= -.87268297E+03 E0= -.87268297E+03  d E =-.698797E-04
       N       E                     dE             d eps       ncg     rms          rms(c)
DAV:   1    -0.872682990949E+03   -0.25153E-04   -0.23304E-03   704   0.946E-02    0.151E-02
DAV:   2    -0.872682995006E+03   -0.40570E-05   -0.54235E-05   800   0.136E-02    0.561E-03
DAV:   3    -0.872682994323E+03    0.68297E-06   -0.13436E-06   528   0.315E-03
  98 F= -.87268299E+03 E0= -.87268299E+03  d E =-.291279E-04
       N       E                     dE             d eps       ncg     rms          rms(c)
DAV:   1    -0.872683035112E+03   -0.40107E-04   -0.57858E-03   704   0.150E-01    0.151E-02
DAV:   2    -0.872683045257E+03   -0.10145E-04   -0.11419E-04   776   0.192E-02    0.752E-03
DAV:   3    -0.872683044630E+03    0.62718E-06   -0.20170E-06   584   0.314E-03
  99 F= -.87268304E+03 E0= -.87268304E+03  d E =-.503076E-04
       N       E                     dE             d eps       ncg     rms          rms(c)
DAV:   1    -0.872683058217E+03   -0.12960E-04   -0.42129E-04   720   0.403E-02    0.620E-03
DAV:   2    -0.872683058838E+03   -0.62038E-06   -0.84814E-06   784   0.541E-03
 100 F= -.87268306E+03 E0= -.87268306E+03  d E =-.142075E-04
       N       E                     dE             d eps       ncg     rms          rms(c)
DAV:   1    -0.872683096998E+03   -0.38781E-04   -0.44529E-03   704   0.131E-01    0.121E-02
DAV:   2    -0.872683104855E+03   -0.78574E-05   -0.88029E-05   776   0.168E-02    0.711E-03
DAV:   3    -0.872683104378E+03    0.47753E-06   -0.13965E-06   536   0.263E-03
 101 F= -.87268310E+03 E0= -.87268310E+03  d E =-.455402E-04
       N       E                     dE             d eps       ncg     rms          rms(c)
DAV:   1    -0.872683164639E+03   -0.59783E-04   -0.72823E-02   704   0.530E-01    0.457E-02
DAV:   2    -0.872683293554E+03   -0.12892E-03   -0.14137E-03   760   0.672E-02    0.253E-02
DAV:   3    -0.872683287925E+03    0.56297E-05   -0.24182E-05   832   0.975E-03    0.161E-02
DAV:   4    -0.872683284515E+03    0.34097E-05   -0.22151E-05   816   0.126E-02    0.471E-03
DAV:   5    -0.872683284795E+03   -0.28008E-06   -0.54237E-06   720   0.482E-03
 102 F= -.87268328E+03 E0= -.87268328E+03  d E =-.180417E-03
       N       E                     dE             d eps       ncg     rms          rms(c)
DAV:   1    -0.872683311491E+03   -0.26976E-04   -0.19032E-03   728   0.857E-02    0.920E-03
DAV:   2    -0.872683315269E+03   -0.37779E-05   -0.42676E-05   776   0.118E-02    0.423E-03
DAV:   3    -0.872683315145E+03    0.12379E-06   -0.64366E-07   472   0.202E-03
 103 F= -.87268332E+03 E0= -.87268332E+03  d E =-.303500E-04
       N       E                     dE             d eps       ncg     rms          rms(c)
DAV:   1    -0.872683302642E+03    0.12627E-04   -0.32685E-04   720   0.358E-02    0.284E-03
DAV:   2    -0.872683303327E+03   -0.68436E-06   -0.73747E-06   728   0.491E-03
 104 F= -.87268330E+03 E0= -.87268330E+03  d E =0.118186E-04
       N       E                     dE             d eps       ncg     rms          rms(c)
DAV:   1    -0.872683339766E+03   -0.37124E-04   -0.58520E-03   704   0.150E-01    0.157E-02
DAV:   2    -0.872683350759E+03   -0.10993E-04   -0.12259E-04   792   0.200E-02    0.760E-03
DAV:   3    -0.872683350054E+03    0.70454E-06   -0.19342E-06   576   0.335E-03
 105 F= -.87268335E+03 E0= -.87268335E+03  d E =-.467275E-04
       N       E                     dE             d eps       ncg     rms          rms(c)
DAV:   1    -0.872683420756E+03   -0.69997E-04   -0.41539E-02   704   0.399E-01    0.354E-02
DAV:   2    -0.872683493040E+03   -0.72284E-04   -0.79724E-04   768   0.504E-02    0.197E-02
DAV:   3    -0.872683489617E+03    0.34227E-05   -0.13641E-05   832   0.745E-03    0.124E-02
DAV:   4    -0.872683487705E+03    0.19124E-05   -0.13120E-05   816   0.965E-03    0.359E-03
DAV:   5    -0.872683487849E+03   -0.14389E-06   -0.30611E-06   648   0.369E-03
 106 F= -.87268349E+03 E0= -.87268349E+03  d E =-.137795E-03
       N       E                     dE             d eps       ncg     rms          rms(c)
DAV:   1    -0.872683452735E+03    0.34969E-04   -0.18987E-01   704   0.855E-01    0.738E-02
DAV:   2    -0.872683795752E+03   -0.34302E-03   -0.37460E-03   760   0.109E-01    0.417E-02
DAV:   3    -0.872683780337E+03    0.15415E-04   -0.60289E-05   832   0.158E-02    0.267E-02
DAV:   4    -0.872683771595E+03    0.87418E-05   -0.67179E-05   816   0.217E-02    0.839E-03
DAV:   5    -0.872683772054E+03   -0.45935E-06   -0.15791E-05   784   0.835E-03    0.824E-03
DAV:   6    -0.872683771515E+03    0.53940E-06   -0.39725E-06   672   0.437E-03
 107 F= -.87268377E+03 E0= -.87268377E+03  d E =-.283666E-03
       N       E                     dE             d eps       ncg     rms          rms(c)
DAV:   1    -0.872683593935E+03    0.17812E-03   -0.31760E-01   704   0.111E+00    0.953E-02
DAV:   2    -0.872684169216E+03   -0.57528E-03   -0.62737E-03   760   0.141E-01    0.542E-02
DAV:   3    -0.872684142868E+03    0.26348E-04   -0.10033E-04   824   0.203E-02    0.347E-02
DAV:   4    -0.872684127904E+03    0.14964E-04   -0.11170E-04   816   0.280E-02    0.106E-02
DAV:   5    -0.872684128772E+03   -0.86820E-06   -0.26440E-05   784   0.107E-02    0.105E-02
DAV:   6    -0.872684127916E+03    0.85562E-06   -0.64157E-06   744   0.553E-03
 108 F= -.87268413E+03 E0= -.87268413E+03  d E =-.356402E-03
       N       E                     dE             d eps       ncg     rms          rms(c)
DAV:   1    -0.872684075226E+03    0.53546E-04   -0.19311E-01   704   0.863E-01    0.744E-02
DAV:   2    -0.872684427916E+03   -0.35269E-03   -0.38431E-03   760   0.111E-01    0.423E-02
DAV:   3    -0.872684412379E+03    0.15537E-04   -0.61234E-05   824   0.159E-02    0.271E-02
DAV:   4    -0.872684403646E+03    0.87325E-05   -0.69336E-05   816   0.221E-02    0.850E-03
DAV:   5    -0.872684404105E+03   -0.45899E-06   -0.16219E-05   784   0.846E-03    0.835E-03
DAV:   6    -0.872684403551E+03    0.55459E-06   -0.41163E-06   688   0.444E-03
 109 F= -.87268440E+03 E0= -.87268440E+03  d E =-.275634E-03
       N       E                     dE             d eps       ncg     rms          rms(c)
DAV:   1    -0.872683911732E+03    0.49237E-03   -0.15079E-01   704   0.762E-01    0.650E-02
DAV:   2    -0.872684181014E+03   -0.26928E-03   -0.29482E-03   768   0.971E-02    0.375E-02
DAV:   3    -0.872684167975E+03    0.13038E-04   -0.48912E-05   832   0.142E-02    0.240E-02
DAV:   4    -0.872684160070E+03    0.79052E-05   -0.52159E-05   816   0.192E-02    0.724E-03
DAV:   5    -0.872684160516E+03   -0.44578E-06   -0.12721E-05   784   0.750E-03    0.719E-03
DAV:   6    -0.872684160118E+03    0.39745E-06   -0.27771E-06   592   0.370E-03
 110 F= -.87268416E+03 E0= -.87268416E+03  d E =0.243432E-03
       N       E                     dE             d eps       ncg     rms          rms(c)
DAV:   1    -0.872684215462E+03   -0.54947E-04   -0.64910E-02   704   0.499E-01    0.441E-02
DAV:   2    -0.872684330158E+03   -0.11470E-03   -0.12634E-03   768   0.636E-02    0.248E-02
DAV:   3    -0.872684324058E+03    0.61004E-05   -0.21246E-05   832   0.947E-03    0.157E-02
DAV:   4    -0.872684320387E+03    0.36708E-05   -0.21525E-05   816   0.125E-02    0.445E-03
DAV:   5    -0.872684320632E+03   -0.24495E-06   -0.55451E-06   720   0.494E-03
 111 F= -.87268432E+03 E0= -.87268432E+03  d E =-.160514E-03
       N       E                     dE             d eps       ncg     rms          rms(c)
DAV:   1    -0.872684271956E+03    0.48431E-04   -0.11135E-02   704   0.211E-01    0.509E-02
DAV:   2    -0.872684292006E+03   -0.20050E-04   -0.33547E-04   824   0.353E-02    0.186E-02
DAV:   3    -0.872684284034E+03    0.79718E-05   -0.14118E-05   824   0.109E-02    0.103E-02
DAV:   4    -0.872684281023E+03    0.30118E-05   -0.12671E-05   808   0.100E-02    0.372E-03
DAV:   5    -0.872684280907E+03    0.11545E-06   -0.39877E-06   720   0.503E-03
 112 F= -.87268428E+03 E0= -.87268428E+03  d E =0.397246E-04
       N       E                     dE             d eps       ncg     rms          rms(c)
DAV:   1    -0.872684351198E+03   -0.70176E-04   -0.67145E-03   704   0.163E-01    0.374E-02
DAV:   2    -0.872684362911E+03   -0.11713E-04   -0.19862E-04   816   0.271E-02    0.131E-02
DAV:   3    -0.872684358418E+03    0.44933E-05   -0.80742E-06   816   0.784E-03    0.727E-03
DAV:   4    -0.872684356720E+03    0.16983E-05   -0.63007E-06   792   0.696E-03    0.223E-03
DAV:   5    -0.872684356714E+03    0.51805E-08   -0.19860E-06   552   0.346E-03
 113 F= -.87268436E+03 E0= -.87268436E+03  d E =-.758071E-04
       N       E                     dE             d eps       ncg     rms          rms(c)
DAV:   1    -0.872684397450E+03   -0.40731E-04   -0.98303E-03   704   0.196E-01    0.245E-02
DAV:   2    -0.872684416213E+03   -0.18763E-04   -0.21890E-04   800   0.271E-02    0.115E-02
DAV:   3    -0.872684414438E+03    0.17747E-05   -0.46790E-06   712   0.521E-03    0.693E-03
DAV:   4    -0.872684413635E+03    0.80375E-06   -0.53582E-06   760   0.596E-03
 114 F= -.87268441E+03 E0= -.87268441E+03  d E =-.569202E-04
       N       E                     dE             d eps       ncg     rms          rms(c)
DAV:   1    -0.872684437895E+03   -0.23457E-04   -0.17698E-03   704   0.837E-02    0.162E-02
DAV:   2    -0.872684441344E+03   -0.34490E-05   -0.49296E-05   824   0.133E-02    0.649E-03
DAV:   3    -0.872684440491E+03    0.85356E-06   -0.15978E-06   512   0.364E-03
 115 F= -.87268444E+03 E0= -.87268444E+03  d E =-.268560E-04
       N       E                     dE             d eps       ncg     rms          rms(c)
DAV:   1    -0.872684469644E+03   -0.28300E-04   -0.27121E-03   704   0.102E-01    0.104E-02
DAV:   2    -0.872684474509E+03   -0.48647E-05   -0.55295E-05   784   0.134E-02    0.555E-03
DAV:   3    -0.872684474236E+03    0.27282E-06   -0.99722E-07   504   0.221E-03
 116 F= -.87268447E+03 E0= -.87268447E+03  d E =-.337452E-04
       N       E                     dE             d eps       ncg     rms          rms(c)
DAV:   1    -0.872684509922E+03   -0.35413E-04   -0.43605E-03   712   0.129E-01    0.123E-02
DAV:   2    -0.872684517466E+03   -0.75443E-05   -0.83891E-05   768   0.164E-02    0.642E-03
DAV:   3    -0.872684517093E+03    0.37316E-06   -0.15144E-06   560   0.262E-03
 117 F= -.87268452E+03 E0= -.87268452E+03  d E =-.428569E-04
       N       E                     dE             d eps       ncg     rms          rms(c)
DAV:   1    -0.872684539031E+03   -0.21566E-04   -0.14632E-03   712   0.750E-02    0.842E-03
DAV:   2    -0.872684541413E+03   -0.23817E-05   -0.27735E-05   776   0.953E-03    0.388E-03
DAV:   3    -0.872684541254E+03    0.15928E-06   -0.59597E-07   464   0.179E-03
 118 F= -.87268454E+03 E0= -.87268454E+03  d E =-.241613E-04
       N       E                     dE             d eps       ncg     rms          rms(c)
DAV:   1    -0.872684579869E+03   -0.38455E-04   -0.82864E-02   704   0.565E-01    0.485E-02
DAV:   2    -0.872684730096E+03   -0.15023E-03   -0.16383E-03   768   0.721E-02    0.271E-02
DAV:   3    -0.872684723463E+03    0.66333E-05   -0.27462E-05   832   0.105E-02    0.174E-02
DAV:   4    -0.872684719374E+03    0.40882E-05   -0.27940E-05   816   0.142E-02    0.530E-03
DAV:   5    -0.872684719656E+03   -0.28141E-06   -0.69182E-06   744   0.551E-03
 119 F= -.87268472E+03 E0= -.87268472E+03  d E =-.178402E-03
       N       E                     dE             d eps       ncg     rms          rms(c)
DAV:   1    -0.872684741826E+03   -0.22451E-04   -0.16727E-03   704   0.808E-02    0.115E-02
DAV:   2    -0.872684745134E+03   -0.33088E-05   -0.40679E-05   800   0.118E-02    0.427E-03
DAV:   3    -0.872684744886E+03    0.24826E-06   -0.86887E-07   488   0.243E-03
 120 F= -.87268474E+03 E0= -.87268474E+03  d E =-.252303E-04
       N       E                     dE             d eps       ncg     rms          rms(c)
DAV:   1    -0.872684786552E+03   -0.41417E-04   -0.86530E-03   720   0.183E-01    0.172E-02
DAV:   2    -0.872684801890E+03   -0.15338E-04   -0.17046E-04   784   0.234E-02    0.894E-03
DAV:   3    -0.872684801078E+03    0.81236E-06   -0.30123E-06   624   0.361E-03
 121 F= -.87268480E+03 E0= -.87268480E+03  d E =-.561916E-04
       N       E                     dE             d eps       ncg     rms          rms(c)
DAV:   1    -0.872684817844E+03   -0.15953E-04   -0.80622E-04   720   0.556E-02    0.723E-03
DAV:   2    -0.872684819066E+03   -0.12229E-05   -0.15149E-05   784   0.714E-03    0.332E-03
DAV:   3    -0.872684818961E+03    0.10557E-06   -0.50369E-07   424   0.171E-03
 122 F= -.87268482E+03 E0= -.87268482E+03  d E =-.178832E-04
       N       E                     dE             d eps       ncg     rms          rms(c)
DAV:   1    -0.872684827086E+03   -0.80197E-05   -0.16733E-04   704   0.253E-02    0.260E-03
DAV:   2    -0.872684827345E+03   -0.25842E-06   -0.29756E-06   568   0.316E-03
 123 F= -.87268483E+03 E0= -.87268483E+03  d E =-.838370E-05
       N       E                     dE             d eps       ncg     rms          rms(c)
DAV:   1    -0.872684884221E+03   -0.57135E-04   -0.28230E-02   704   0.330E-01    0.285E-02
DAV:   2    -0.872684935188E+03   -0.50967E-04   -0.55784E-04   768   0.422E-02    0.162E-02
DAV:   3    -0.872684932758E+03    0.24304E-05   -0.92254E-06   816   0.615E-03    0.104E-02
DAV:   4    -0.872684931352E+03    0.14052E-05   -0.10101E-05   792   0.849E-03    0.311E-03
DAV:   5    -0.872684931441E+03   -0.88214E-07   -0.23710E-06   560   0.327E-03
 124 F= -.87268493E+03 E0= -.87268493E+03  d E =-.104096E-03
       N       E                     dE             d eps       ncg     rms          rms(c)
DAV:   1    -0.872684956488E+03   -0.25135E-04   -0.94503E-02   704   0.604E-01    0.524E-02
DAV:   2    -0.872685129553E+03   -0.17307E-03   -0.18880E-03   760   0.776E-02    0.288E-02
DAV:   3    -0.872685122171E+03    0.73827E-05   -0.31381E-05   832   0.113E-02    0.185E-02
DAV:   4    -0.872685117789E+03    0.43811E-05   -0.32838E-05   816   0.152E-02    0.595E-03
DAV:   5    -0.872685118038E+03   -0.24812E-06   -0.76928E-06   752   0.586E-03
 125 F= -.87268512E+03 E0= -.87268512E+03  d E =-.186597E-03
       N       E                     dE             d eps       ncg     rms          rms(c)
DAV:   1    -0.872685115192E+03    0.25974E-05   -0.38383E-04   704   0.390E-02    0.993E-03
DAV:   2    -0.872685115641E+03   -0.44890E-06   -0.11528E-05   816   0.677E-03    0.347E-03
DAV:   3    -0.872685115304E+03    0.33660E-06   -0.55920E-07   480   0.228E-03
 126 F= -.87268512E+03 E0= -.87268512E+03  d E =0.273318E-05
       N       E                     dE             d eps       ncg     rms          rms(c)
DAV:   1    -0.872685087635E+03    0.28006E-04   -0.19952E-03   704   0.885E-02    0.108E-02
DAV:   2    -0.872685091528E+03   -0.38932E-05   -0.44384E-05   792   0.122E-02    0.511E-03
DAV:   3    -0.872685091153E+03    0.37564E-06   -0.74061E-07   488   0.218E-03
 127 F= -.87268509E+03 E0= -.87268509E+03  d E =0.241516E-04
       N       E                     dE             d eps       ncg     rms          rms(c)
DAV:   1    -0.872685100629E+03   -0.91010E-05   -0.31133E-04   704   0.354E-02    0.505E-03
DAV:   2    -0.872685101404E+03   -0.77459E-06   -0.88774E-06   776   0.547E-03
 128 F= -.87268510E+03 E0= -.87268510E+03  d E =-.102513E-04
       N       E                     dE             d eps       ncg     rms          rms(c)
DAV:   1    -0.872685140476E+03   -0.39846E-04   -0.77241E-03   704   0.172E-01    0.152E-02
DAV:   2    -0.872685154065E+03   -0.13590E-04   -0.15028E-04   760   0.219E-02    0.881E-03
DAV:   3    -0.872685153252E+03    0.81372E-06   -0.23512E-06   584   0.324E-03
 129 F= -.87268515E+03 E0= -.87268515E+03  d E =-.518477E-04
       N       E                     dE             d eps       ncg     rms          rms(c)
DAV:   1    -0.872685176013E+03   -0.21947E-04   -0.19788E-03   720   0.867E-02    0.964E-03
DAV:   2    -0.872685179104E+03   -0.30915E-05   -0.35617E-05   776   0.107E-02    0.423E-03
DAV:   3    -0.872685178921E+03    0.18297E-06   -0.81213E-07   480   0.196E-03
 130 F= -.87268518E+03 E0= -.87268518E+03  d E =-.256696E-04
       N       E                     dE             d eps       ncg     rms          rms(c)
DAV:   1    -0.872685163393E+03    0.15711E-04   -0.79847E-04   704   0.557E-02    0.725E-03
DAV:   2    -0.872685165001E+03   -0.16077E-05   -0.18584E-05   800   0.789E-03    0.295E-03
DAV:   3    -0.872685164832E+03    0.16928E-06   -0.32098E-07   400   0.148E-03
 131 F= -.87268516E+03 E0= -.87268516E+03  d E =0.140896E-04
       N       E                     dE             d eps       ncg     rms          rms(c)
DAV:   1    -0.872685173696E+03   -0.86949E-05   -0.25448E-04   704   0.316E-02    0.315E-03
DAV:   2    -0.872685174229E+03   -0.53303E-06   -0.59004E-06   696   0.443E-03
 132 F= -.87268517E+03 E0= -.87268517E+03  d E =-.939720E-05
       N       E                     dE             d eps       ncg     rms          rms(c)
DAV:   1    -0.872685168660E+03    0.50357E-05   -0.14222E-04   712   0.239E-02    0.465E-03
DAV:   2    -0.872685169039E+03   -0.37906E-06   -0.48356E-06   736   0.415E-03
 133 F= -.87268517E+03 E0= -.87268517E+03  d E =0.518966E-05
       N       E                     dE             d eps       ncg     rms          rms(c)
DAV:   1    -0.872685170341E+03   -0.16808E-05   -0.47726E-06   632   0.444E-03    0.118E-03
DAV:   2    -0.872685170345E+03   -0.35507E-08   -0.22642E-07   376   0.993E-04
 134 F= -.87268517E+03 E0= -.87268517E+03  d E =-.130532E-05
       N       E                     dE             d eps       ncg     rms          rms(c)
DAV:   1    -0.872685218191E+03   -0.47850E-04   -0.14643E-02   712   0.238E-01    0.207E-02
DAV:   2    -0.872685244757E+03   -0.26566E-04   -0.29055E-04   760   0.304E-02    0.115E-02
DAV:   3    -0.872685243478E+03    0.12793E-05   -0.46959E-06   712   0.447E-03    0.735E-03
DAV:   4    -0.872685242743E+03    0.73484E-06   -0.55046E-06   768   0.620E-03
 135 F= -.87268524E+03 E0= -.87268524E+03  d E =-.723983E-04
       N       E                     dE             d eps       ncg     rms          rms(c)
DAV:   1    -0.872685283648E+03   -0.40170E-04   -0.91841E-03   704   0.189E-01    0.208E-02
DAV:   2    -0.872685300518E+03   -0.16870E-04   -0.19249E-04   784   0.252E-02    0.963E-03
DAV:   3    -0.872685299533E+03    0.98542E-06   -0.38773E-06   688   0.426E-03
 136 F= -.87268530E+03 E0= -.87268530E+03  d E =-.567897E-04
       N       E                     dE             d eps       ncg     rms          rms(c)
DAV:   1    -0.872685355434E+03   -0.54916E-04   -0.28753E-02   704   0.333E-01    0.307E-02
DAV:   2    -0.872685405567E+03   -0.50133E-04   -0.55746E-04   768   0.423E-02    0.165E-02
DAV:   3    -0.872685403255E+03    0.23124E-05   -0.10487E-05   832   0.656E-03    0.104E-02
DAV:   4    -0.872685401913E+03    0.13413E-05   -0.88073E-06   784   0.816E-03    0.309E-03
DAV:   5    -0.872685402023E+03   -0.10907E-06   -0.22093E-06   568   0.323E-03
 137 F= -.87268540E+03 E0= -.87268540E+03  d E =-.102490E-03
       N       E                     dE             d eps       ncg     rms          rms(c)
DAV:   1    -0.872685426848E+03   -0.24934E-04   -0.29535E-03   704   0.107E-01    0.152E-02
DAV:   2    -0.872685432465E+03   -0.56175E-05   -0.68568E-05   808   0.153E-02    0.608E-03
DAV:   3    -0.872685431850E+03    0.61506E-06   -0.14509E-06   520   0.321E-03
 138 F= -.87268543E+03 E0= -.87268543E+03  d E =-.298276E-04
       N       E                     dE             d eps       ncg     rms          rms(c)
DAV:   1    -0.872685321057E+03    0.11141E-03   -0.18693E-02   704   0.269E-01    0.251E-02
DAV:   2    -0.872685355970E+03   -0.34914E-04   -0.38267E-04   768   0.352E-02    0.133E-02
DAV:   3    -0.872685353987E+03    0.19830E-05   -0.62731E-06   760   0.527E-03    0.846E-03
DAV:   4    -0.872685352839E+03    0.11479E-05   -0.71265E-06   784   0.713E-03    0.246E-03
DAV:   5    -0.872685352896E+03   -0.56301E-07   -0.16910E-06   456   0.281E-03
 139 F= -.87268535E+03 E0= -.87268535E+03  d E =0.789545E-04
       N       E                     dE             d eps       ncg     rms          rms(c)
DAV:   1    -0.872685355023E+03   -0.21838E-05   -0.25478E-05   664   0.101E-02    0.225E-03
DAV:   2    -0.872685355057E+03   -0.33440E-07   -0.88022E-07   376   0.195E-03
 140 F= -.87268536E+03 E0= -.87268536E+03  d E =-.216097E-05
       N       E                     dE             d eps       ncg     rms          rms(c)
DAV:   1    -0.872685374408E+03   -0.19385E-04   -0.37808E-03   704   0.122E-01    0.197E-02
DAV:   2    -0.872685381477E+03   -0.70695E-05   -0.88980E-05   808   0.175E-02    0.722E-03
DAV:   3    -0.872685380334E+03    0.11435E-05   -0.20307E-06   552   0.380E-03    0.416E-03
DAV:   4    -0.872685379804E+03    0.53015E-06   -0.21732E-06   520   0.425E-03
 141 F= -.87268538E+03 E0= -.87268538E+03  d E =-.247470E-04
       N       E                     dE             d eps       ncg     rms          rms(c)
DAV:   1    -0.872685365074E+03    0.15259E-04   -0.19546E-03   704   0.882E-02    0.164E-02
DAV:   2    -0.872685368591E+03   -0.35166E-05   -0.49966E-05   816   0.135E-02    0.577E-03
DAV:   3    -0.872685367748E+03    0.84284E-06   -0.14449E-06   520   0.339E-03
 142 F= -.87268537E+03 E0= -.87268537E+03  d E =0.120553E-04
       N       E                     dE             d eps       ncg     rms          rms(c)
DAV:   1    -0.872685393831E+03   -0.25240E-04   -0.76600E-03   704   0.174E-01    0.218E-02
DAV:   2    -0.872685408955E+03   -0.15124E-04   -0.17280E-04   792   0.240E-02    0.883E-03
DAV:   3    -0.872685407509E+03    0.14454E-05   -0.30683E-06   632   0.419E-03    0.527E-03
DAV:   4    -0.872685406701E+03    0.80810E-06   -0.33838E-06   696   0.520E-03
 143 F= -.87268541E+03 E0= -.87268541E+03  d E =-.389529E-04
       N       E                     dE             d eps       ncg     rms          rms(c)
DAV:   1    -0.872685426273E+03   -0.18763E-04   -0.45022E-03   704   0.133E-01    0.253E-02
DAV:   2    -0.872685434227E+03   -0.79546E-05   -0.11713E-04   816   0.206E-02    0.909E-03
DAV:   3    -0.872685432033E+03    0.21939E-05   -0.39891E-06   760   0.581E-03    0.514E-03
DAV:   4    -0.872685430942E+03    0.10918E-05   -0.31503E-06   688   0.572E-03    0.155E-03
DAV:   5    -0.872685430933E+03    0.81563E-08   -0.14332E-06   520   0.291E-03
 144 F= -.87268543E+03 E0= -.87268543E+03  d E =-.242323E-04
       N       E                     dE             d eps       ncg     rms          rms(c)
DAV:   1    -0.872685454662E+03   -0.23721E-04   -0.15439E-03   704   0.781E-02    0.162E-02
DAV:   2    -0.872685457316E+03   -0.26537E-05   -0.42645E-05   824   0.126E-02    0.571E-03
DAV:   3    -0.872685456449E+03    0.86754E-06   -0.15568E-06   520   0.364E-03
 145 F= -.87268546E+03 E0= -.87268546E+03  d E =-.255152E-04
       N       E                     dE             d eps       ncg     rms          rms(c)
DAV:   1    -0.872685488580E+03   -0.31264E-04   -0.52498E-03   704   0.142E-01    0.143E-02
DAV:   2    -0.872685497881E+03   -0.93010E-05   -0.10470E-04   776   0.185E-02    0.717E-03
DAV:   3    -0.872685497264E+03    0.61742E-06   -0.17592E-06   576   0.297E-03
 146 F= -.87268550E+03 E0= -.87268550E+03  d E =-.408155E-04
       N       E                     dE             d eps       ncg     rms          rms(c)
DAV:   1    -0.872685509064E+03   -0.11183E-04   -0.48068E-04   704   0.433E-02    0.715E-03
DAV:   2    -0.872685509813E+03   -0.74870E-06   -0.10358E-05   784   0.598E-03    0.269E-03
DAV:   3    -0.872685509690E+03    0.12364E-06   -0.32868E-07   424   0.151E-03
 147 F= -.87268551E+03 E0= -.87268551E+03  d E =-.124255E-04
       N       E                     dE             d eps       ncg     rms          rms(c)
DAV:   1    -0.872685547849E+03   -0.38036E-04   -0.84793E-03   704   0.181E-01    0.168E-02
DAV:   2    -0.872685562982E+03   -0.15133E-04   -0.16778E-04   776   0.233E-02    0.884E-03
DAV:   3    -0.872685562112E+03    0.86931E-06   -0.27232E-06   608   0.359E-03
 148 F= -.87268556E+03 E0= -.87268556E+03  d E =-.524229E-04
       N       E                     dE             d eps       ncg     rms          rms(c)
[...]
 239 F= -.87268821E+03 E0= -.87268821E+03  d E =-.299964E-04
       N       E                     dE             d eps       ncg     rms          rms(c)
DAV:   1    -0.872688211141E+03   -0.10537E-05   -0.85963E-06   664   0.587E-03    0.145E-03
DAV:   2    -0.872688211121E+03    0.19856E-07   -0.17309E-07   384   0.113E-03
 240 F= -.87268821E+03 E0= -.87268821E+03  d E =-.146992E-05
       N       E                     dE             d eps       ncg     rms          rms(c)
DAV:   1    -0.872688211861E+03   -0.71945E-06   -0.33047E-06   552   0.370E-03    0.714E-04
DAV:   2    -0.872688211869E+03   -0.82728E-08   -0.12437E-07   376   0.759E-04
 241 F= -.87268821E+03 E0= -.87268821E+03  d E =-.747576E-06
       N       E                     dE             d eps       ncg     rms          rms(c)
DAV:   1    -0.872688223246E+03   -0.11385E-04   -0.63126E-04   704   0.491E-02    0.448E-03
DAV:   2    -0.872688224369E+03   -0.11230E-05   -0.12522E-05   776   0.633E-03    0.261E-03
DAV:   3    -0.872688224313E+03    0.56018E-07   -0.19421E-07   392   0.100E-03
 242 F= -.87268822E+03 E0= -.87268822E+03  d E =-.124441E-04
       N       E                     dE             d eps       ncg     rms          rms(c)
DAV:   1    -0.872688209296E+03    0.15073E-04   -0.79962E-04   704   0.556E-02    0.496E-03
DAV:   2    -0.872688210850E+03   -0.15539E-05   -0.16806E-05   776   0.735E-03    0.293E-03
DAV:   3    -0.872688210752E+03    0.97636E-07   -0.21609E-07   376   0.116E-03
 243 F= -.87268821E+03 E0= -.87268821E+03  d E =0.135607E-04
       N       E                     dE             d eps       ncg     rms          rms(c)
DAV:   1    -0.872688242288E+03   -0.31438E-04   -0.11888E-02   704   0.214E-01    0.195E-02
DAV:   2    -0.872688264219E+03   -0.21931E-04   -0.24074E-04   776   0.278E-02    0.110E-02
DAV:   3    -0.872688263047E+03    0.11728E-05   -0.39031E-06   688   0.434E-03    0.708E-03
DAV:   4    -0.872688262502E+03    0.54491E-06   -0.60126E-06   752   0.640E-03
 244 F= -.87268826E+03 E0= -.87268826E+03  d E =-.517492E-04
       N       E                     dE             d eps       ncg     rms          rms(c)
DAV:   1    -0.872688266615E+03   -0.35682E-05   -0.57694E-04   704   0.478E-02    0.106E-02
DAV:   2    -0.872688267364E+03   -0.74885E-06   -0.15052E-05   824   0.758E-03    0.403E-03
DAV:   3    -0.872688266965E+03    0.39826E-06   -0.82021E-07   488   0.255E-03
 245 F= -.87268827E+03 E0= -.87268827E+03  d E =-.446368E-05
       N       E                     dE             d eps       ncg     rms          rms(c)
DAV:   1    -0.872688297570E+03   -0.30206E-04   -0.64580E-03   704   0.157E-01    0.164E-02
DAV:   2    -0.872688308893E+03   -0.11323E-04   -0.12664E-04   776   0.202E-02    0.855E-03
DAV:   3    -0.872688308148E+03    0.74520E-06   -0.20289E-06   576   0.330E-03
 246 F= -.87268831E+03 E0= -.87268831E+03  d E =-.411823E-04
       N       E                     dE             d eps       ncg     rms          rms(c)
DAV:   1    -0.872688305667E+03    0.32254E-05   -0.20326E-04   736   0.289E-02    0.625E-03
DAV:   2    -0.872688306292E+03   -0.62490E-06   -0.84229E-06   824   0.542E-03
 247 F= -.87268831E+03 E0= -.87268831E+03  d E =0.185533E-05
       N       E                     dE             d eps       ncg     rms          rms(c)
DAV:   1    -0.872688292193E+03    0.13474E-04   -0.86085E-04   704   0.572E-02    0.624E-03
DAV:   2    -0.872688293748E+03   -0.15555E-05   -0.17560E-05   792   0.763E-03    0.327E-03
DAV:   3    -0.872688293637E+03    0.11177E-06   -0.28157E-07   384   0.124E-03
 248 F= -.87268829E+03 E0= -.87268829E+03  d E =0.126556E-04
       N       E                     dE             d eps       ncg     rms          rms(c)
DAV:   1    -0.872688309182E+03   -0.15433E-04   -0.34178E-03   704   0.116E-01    0.139E-02
DAV:   2    -0.872688316124E+03   -0.69427E-05   -0.80269E-05   800   0.165E-02    0.689E-03
DAV:   3    -0.872688315505E+03    0.61897E-06   -0.14288E-06   520   0.313E-03
 249 F= -.87268832E+03 E0= -.87268832E+03  d E =-.218687E-04
       N       E                     dE             d eps       ncg     rms          rms(c)
DAV:   1    -0.872688326835E+03   -0.10711E-04   -0.63989E-04   704   0.504E-02    0.825E-03
DAV:   2    -0.872688327904E+03   -0.10693E-05   -0.15078E-05   824   0.722E-03    0.375E-03
DAV:   3    -0.872688327641E+03    0.26380E-06   -0.65069E-07   424   0.213E-03
 250 F= -.87268833E+03 E0= -.87268833E+03  d E =-.121352E-04
       N       E                     dE             d eps       ncg     rms          rms(c)
DAV:   1    -0.872688343638E+03   -0.15734E-04   -0.16245E-03   704   0.789E-02    0.777E-03
DAV:   2    -0.872688346382E+03   -0.27441E-05   -0.31039E-05   776   0.100E-02    0.415E-03
DAV:   3    -0.872688346184E+03    0.19807E-06   -0.45452E-07   456   0.157E-03
 251 F= -.87268835E+03 E0= -.87268835E+03  d E =-.185433E-04
       N       E                     dE             d eps       ncg     rms          rms(c)
DAV:   1    -0.872688363348E+03   -0.16966E-04   -0.17786E-03   712   0.825E-02    0.730E-03
DAV:   2    -0.872688366284E+03   -0.29358E-05   -0.32723E-05   776   0.102E-02    0.392E-03
DAV:   3    -0.872688366158E+03    0.12548E-06   -0.51272E-07   448   0.156E-03
 252 F= -.87268837E+03 E0= -.87268837E+03  d E =-.199743E-04
       N       E                     dE             d eps       ncg     rms          rms(c)
DAV:   1    -0.872688375400E+03   -0.91162E-05   -0.46410E-04   712   0.421E-02    0.408E-03
DAV:   2    -0.872688376111E+03   -0.71145E-06   -0.81281E-06   736   0.512E-03
 253 F= -.87268838E+03 E0= -.87268838E+03  d E =-.995315E-05
       N       E                     dE             d eps       ncg     rms          rms(c)
DAV:   1    -0.872688206379E+03    0.16902E-03   -0.24160E-01   704   0.963E-01    0.822E-02
DAV:   2    -0.872688632251E+03   -0.42587E-03   -0.46792E-03   760   0.122E-01    0.479E-02
DAV:   3    -0.872688612212E+03    0.20039E-04   -0.75873E-05   808   0.178E-02    0.306E-02
DAV:   4    -0.872688601307E+03    0.10905E-04   -0.88718E-05   816   0.249E-02    0.967E-03
DAV:   5    -0.872688601851E+03   -0.54431E-06   -0.20709E-05   784   0.953E-03    0.954E-03
DAV:   6    -0.872688601106E+03    0.74475E-06   -0.53988E-06   728   0.508E-03
 254 F= -.87268860E+03 E0= -.87268860E+03  d E =-.224995E-03
       N       E                     dE             d eps       ncg     rms          rms(c)
DAV:   1    -0.872688573645E+03    0.28206E-04   -0.99353E-02   704   0.618E-01    0.536E-02
DAV:   2    -0.872688752714E+03   -0.17907E-03   -0.19595E-03   760   0.790E-02    0.305E-02
DAV:   3    -0.872688744871E+03    0.78426E-05   -0.31016E-05   808   0.115E-02    0.195E-02
DAV:   4    -0.872688740747E+03    0.41238E-05   -0.37571E-05   816   0.163E-02    0.646E-03
DAV:   5    -0.872688740912E+03   -0.16502E-06   -0.87032E-06   752   0.623E-03
 255 F= -.87268874E+03 E0= -.87268874E+03  d E =-.139806E-03
       N       E                     dE             d eps       ncg     rms          rms(c)
DAV:   1    -0.872688347206E+03    0.39354E-03   -0.14130E-01   704   0.737E-01    0.616E-02
DAV:   2    -0.872688594749E+03   -0.24754E-03   -0.27155E-03   760   0.931E-02    0.368E-02
DAV:   3    -0.872688582112E+03    0.12638E-04   -0.43400E-05   800   0.135E-02    0.235E-02
DAV:   4    -0.872688574778E+03    0.73341E-05   -0.51271E-05   816   0.190E-02    0.698E-03
DAV:   5    -0.872688575188E+03   -0.41070E-06   -0.12464E-05   776   0.735E-03    0.707E-03
DAV:   6    -0.872688574806E+03    0.38261E-06   -0.25527E-06   560   0.354E-03
 256 F= -.87268857E+03 E0= -.87268857E+03  d E =0.166107E-03
       N       E                     dE             d eps       ncg     rms          rms(c)
DAV:   1    -0.872688547828E+03    0.27361E-04   -0.10919E-01   704   0.647E-01    0.550E-02
DAV:   2    -0.872688738076E+03   -0.19025E-03   -0.20918E-03   760   0.817E-02    0.319E-02
DAV:   3    -0.872688729014E+03    0.90614E-05   -0.34539E-05   808   0.119E-02    0.203E-02
DAV:   4    -0.872688723714E+03    0.53005E-05   -0.37269E-05   816   0.163E-02    0.613E-03
DAV:   5    -0.872688724039E+03   -0.32507E-06   -0.90176E-06   752   0.625E-03
 257 F= -.87268872E+03 E0= -.87268872E+03  d E =-.149233E-03
       N       E                     dE             d eps       ncg     rms          rms(c)
DAV:   1    -0.872688351594E+03    0.37212E-03   -0.13114E-01   704   0.709E-01    0.594E-02
DAV:   2    -0.872688580180E+03   -0.22859E-03   -0.25077E-03   760   0.894E-02    0.356E-02
DAV:   3    -0.872688568461E+03    0.11719E-04   -0.40418E-05   808   0.129E-02    0.228E-02
DAV:   4    -0.872688561646E+03    0.68151E-05   -0.46234E-05   816   0.179E-02    0.654E-03
DAV:   5    -0.872688562046E+03   -0.40002E-06   -0.11181E-05   776   0.694E-03    0.662E-03
DAV:   6    -0.872688561701E+03    0.34535E-06   -0.23011E-06   512   0.342E-03
 258 F= -.87268856E+03 E0= -.87268856E+03  d E =0.162338E-03
       N       E                     dE             d eps       ncg     rms          rms(c)
DAV:   1    -0.872688517480E+03    0.44566E-04   -0.12595E-01   704   0.695E-01    0.584E-02
DAV:   2    -0.872688737247E+03   -0.21977E-03   -0.24139E-03   760   0.877E-02    0.341E-02
DAV:   3    -0.872688727101E+03    0.10145E-04   -0.39707E-05   800   0.127E-02    0.218E-02
DAV:   4    -0.872688721102E+03    0.59995E-05   -0.42420E-05   816   0.173E-02    0.659E-03
DAV:   5    -0.872688721470E+03   -0.36790E-06   -0.10150E-05   752   0.663E-03    0.656E-03
DAV:   6    -0.872688721105E+03    0.36495E-06   -0.27048E-06   560   0.367E-03
 259 F= -.87268872E+03 E0= -.87268872E+03  d E =-.159404E-03
       N       E                     dE             d eps       ncg     rms          rms(c)
DAV:   1    -0.872688744140E+03   -0.22671E-04   -0.33531E-02   704   0.359E-01    0.319E-02
DAV:   2    -0.872688804767E+03   -0.60626E-04   -0.66464E-04   776   0.460E-02    0.179E-02
DAV:   3    -0.872688802049E+03    0.27172E-05   -0.10525E-05   808   0.679E-03    0.114E-02
DAV:   4    -0.872688800665E+03    0.13846E-05   -0.12899E-05   792   0.955E-03    0.381E-03
DAV:   5    -0.872688800702E+03   -0.37719E-07   -0.29230E-06   600   0.369E-03
 260 F= -.87268880E+03 E0= -.87268880E+03  d E =-.795977E-04
       N       E                     dE             d eps       ncg     rms          rms(c)
DAV:   1    -0.872688207894E+03    0.59277E-03   -0.55059E-01   704   0.145E+00    0.125E-01
DAV:   2    -0.872689182442E+03   -0.97455E-03   -0.10681E-02   760   0.184E-01    0.717E-02
DAV:   3    -0.872689139023E+03    0.43419E-04   -0.17255E-04   800   0.268E-02    0.458E-02
DAV:   4    -0.872689115172E+03    0.23851E-04   -0.19403E-04   816   0.371E-02    0.145E-02
DAV:   5    -0.872689116418E+03   -0.12458E-05   -0.45574E-05   784   0.141E-02    0.142E-02
DAV:   6    -0.872689114750E+03    0.16675E-05   -0.12197E-05   800   0.762E-03    0.708E-03
DAV:   7    -0.872689114159E+03    0.59146E-06   -0.25835E-06   568   0.372E-03
 261 F= -.87268911E+03 E0= -.87268911E+03  d E =-.313457E-03
       N       E                     dE             d eps       ncg     rms          rms(c)
DAV:   1    -0.872689061411E+03    0.53340E-04   -0.11826E-01   704   0.674E-01    0.569E-02
DAV:   2    -0.872689272305E+03   -0.21089E-03   -0.22980E-03   760   0.854E-02    0.334E-02
DAV:   3    -0.872689262455E+03    0.98498E-05   -0.35427E-05   800   0.123E-02    0.214E-02
DAV:   4    -0.872689257162E+03    0.52932E-05   -0.44731E-05   816   0.177E-02    0.684E-03
DAV:   5    -0.872689257374E+03   -0.21194E-06   -0.10557E-05   768   0.681E-03    0.680E-03
DAV:   6    -0.872689256978E+03    0.39543E-06   -0.23388E-06   520   0.342E-03
 262 F= -.87268926E+03 E0= -.87268926E+03  d E =-.142819E-03
       N       E                     dE             d eps       ncg     rms          rms(c)
DAV:   1    -0.872688121175E+03    0.11362E-02   -0.51597E-01   712   0.141E+00    0.119E-01
DAV:   2    -0.872689024167E+03   -0.90299E-03   -0.99052E-03   760   0.178E-01    0.694E-02
DAV:   3    -0.872688982552E+03    0.41614E-04   -0.16312E-04   800   0.257E-02    0.442E-02
DAV:   4    -0.872688958395E+03    0.24158E-04   -0.17077E-04   816   0.347E-02    0.131E-02
DAV:   5    -0.872688959950E+03   -0.15552E-05   -0.41069E-05   784   0.133E-02    0.130E-02
DAV:   6    -0.872688958594E+03    0.13562E-05   -0.10499E-05   800   0.710E-03    0.660E-03
DAV:   7    -0.872688958076E+03    0.51773E-06   -0.20999E-06   528   0.337E-03
 263 F= -.87268896E+03 E0= -.87268896E+03  d E =0.298902E-03
       N       E                     dE             d eps       ncg     rms          rms(c)
DAV:   1    -0.872688984162E+03   -0.25569E-04   -0.36548E-02   712   0.374E-01    0.342E-02
DAV:   2    -0.872689047160E+03   -0.62998E-04   -0.70365E-04   768   0.476E-02    0.187E-02
DAV:   3    -0.872689044203E+03    0.29573E-05   -0.13061E-05   824   0.725E-03    0.118E-02
DAV:   4    -0.872689042476E+03    0.17271E-05   -0.10870E-05   776   0.866E-03    0.345E-03
DAV:   5    -0.872689042580E+03   -0.10408E-06   -0.24527E-06   568   0.339E-03
 264 F= -.87268904E+03 E0= -.87268904E+03  d E =-.845039E-04
       N       E                     dE             d eps       ncg     rms          rms(c)
DAV:   1    -0.872689030624E+03    0.11851E-04   -0.81234E-02   712   0.557E-01    0.488E-02
DAV:   2    -0.872689173988E+03   -0.14336E-03   -0.15703E-03   760   0.706E-02    0.276E-02
DAV:   3    -0.872689167726E+03    0.62619E-05   -0.25235E-05   800   0.103E-02    0.175E-02
DAV:   4    -0.872689164462E+03    0.32633E-05   -0.28838E-05   816   0.143E-02    0.563E-03
DAV:   5    -0.872689164609E+03   -0.14715E-06   -0.67045E-06   720   0.546E-03
 265 F= -.87268916E+03 E0= -.87268916E+03  d E =-.122030E-03
       N       E                     dE             d eps       ncg     rms          rms(c)
DAV:   1    -0.872689161969E+03    0.24934E-05   -0.29439E-04   720   0.343E-02    0.898E-03
DAV:   2    -0.872689162494E+03   -0.52477E-06   -0.12049E-05   824   0.686E-03    0.388E-03
DAV:   3    -0.872689162159E+03    0.33445E-06   -0.53793E-07   488   0.224E-03
 266 F= -.87268916E+03 E0= -.87268916E+03  d E =0.245019E-05
       N       E                     dE             d eps       ncg     rms          rms(c)
DAV:   1    -0.872689139613E+03    0.22881E-04   -0.27704E-03   704   0.104E-01    0.114E-02
DAV:   2    -0.872689144836E+03   -0.52235E-05   -0.59237E-05   784   0.140E-02    0.577E-03
DAV:   3    -0.872689144411E+03    0.42500E-06   -0.95682E-07   504   0.258E-03
 267 F= -.87268914E+03 E0= -.87268914E+03  d E =0.177481E-04
       N       E                     dE             d eps       ncg     rms          rms(c)
DAV:   1    -0.872689148562E+03   -0.37261E-05   -0.11214E-04   696   0.213E-02    0.306E-03
DAV:   2    -0.872689148843E+03   -0.28047E-06   -0.35511E-06   608   0.359E-03
 268 F= -.87268915E+03 E0= -.87268915E+03  d E =-.443161E-05
       N       E                     dE             d eps       ncg     rms          rms(c)
DAV:   1    -0.872689167434E+03   -0.18872E-04   -0.31394E-03   704   0.110E-01    0.961E-03
DAV:   2    -0.872689172847E+03   -0.54131E-05   -0.59925E-05   776   0.138E-02    0.577E-03
DAV:   3    -0.872689172524E+03    0.32354E-06   -0.86073E-07   504   0.209E-03
 269 F= -.87268917E+03 E0= -.87268917E+03  d E =-.236810E-04
       N       E                     dE             d eps       ncg     rms          rms(c)
DAV:   1    -0.872689179056E+03   -0.62090E-05   -0.28087E-04   712   0.326E-02    0.375E-03
DAV:   2    -0.872689179417E+03   -0.36044E-06   -0.45267E-06   656   0.387E-03
 270 F= -.87268918E+03 E0= -.87268918E+03  d E =-.689295E-05
       N       E                     dE             d eps       ncg     rms          rms(c)
DAV:   1    -0.872689204175E+03   -0.25118E-04   -0.30276E-02   712   0.340E-01    0.298E-02
DAV:   2    -0.872689256950E+03   -0.52776E-04   -0.57968E-04   776   0.428E-02    0.174E-02
DAV:   3    -0.872689254431E+03    0.25196E-05   -0.94958E-06   808   0.630E-03    0.110E-02
DAV:   4    -0.872689253148E+03    0.12824E-05   -0.10830E-05   792   0.857E-03    0.333E-03
DAV:   5    -0.872689253193E+03   -0.44485E-07   -0.24029E-06   568   0.332E-03
 271 F= -.87268925E+03 E0= -.87268925E+03  d E =-.737761E-04
       N       E                     dE             d eps       ncg     rms          rms(c)
DAV:   1    -0.872689266765E+03   -0.13616E-04   -0.46387E-02   712   0.421E-01    0.378E-02
DAV:   2    -0.872689348820E+03   -0.82056E-04   -0.89929E-04   760   0.535E-02    0.207E-02
DAV:   3    -0.872689345199E+03    0.36211E-05   -0.14730E-05   816   0.795E-03    0.131E-02
DAV:   4    -0.872689343289E+03    0.19105E-05   -0.15924E-05   800   0.107E-02    0.417E-03
DAV:   5    -0.872689343384E+03   -0.94893E-07   -0.37534E-06   672   0.412E-03
 272 F= -.87268934E+03 E0= -.87268934E+03  d E =-.901908E-04
       N       E                     dE             d eps       ncg     rms          rms(c)
DAV:   1    -0.872689368245E+03   -0.24956E-04   -0.15536E-02   712   0.243E-01    0.219E-02
DAV:   2    -0.872689396009E+03   -0.27764E-04   -0.30482E-04   768   0.311E-02    0.119E-02
DAV:   3    -0.872689394971E+03    0.10372E-05   -0.49682E-06   704   0.462E-03    0.755E-03
DAV:   4    -0.872689394461E+03    0.50988E-06   -0.56500E-06   752   0.632E-03
 273 F= -.87268939E+03 E0= -.87268939E+03  d E =-.510778E-04
       N       E                     dE             d eps       ncg     rms          rms(c)
DAV:   1    -0.872689396604E+03   -0.16325E-05   -0.49542E-04   704   0.446E-02    0.892E-03
DAV:   2    -0.872689397611E+03   -0.10070E-05   -0.15450E-05   824   0.767E-03    0.396E-03
DAV:   3    -0.872689397375E+03    0.23551E-06   -0.51382E-07   472   0.197E-03
 274 F= -.87268940E+03 E0= -.87268940E+03  d E =-.291387E-05
       N       E                     dE             d eps       ncg     rms          rms(c)
DAV:   1    -0.872689404119E+03   -0.65082E-05   -0.57289E-02   712   0.467E-01    0.416E-02
DAV:   2    -0.872689503454E+03   -0.99335E-04   -0.10918E-03   760   0.590E-02    0.239E-02
DAV:   3    -0.872689498791E+03    0.46628E-05   -0.18527E-05   816   0.863E-03    0.150E-02
DAV:   4    -0.872689496211E+03    0.25805E-05   -0.17855E-05   808   0.111E-02    0.417E-03
DAV:   5    -0.872689496382E+03   -0.17113E-06   -0.42598E-06   704   0.432E-03
 275 F= -.87268950E+03 E0= -.87268950E+03  d E =-.990064E-04
       N       E                     dE             d eps       ncg     rms          rms(c)
DAV:   1    -0.872689521184E+03   -0.24973E-04   -0.20004E-02   712   0.276E-01    0.252E-02
DAV:   2    -0.872689556544E+03   -0.35360E-04   -0.38703E-04   760   0.350E-02    0.138E-02
DAV:   3    -0.872689555156E+03    0.13876E-05   -0.61430E-06   728   0.518E-03    0.871E-03
DAV:   4    -0.872689554536E+03    0.62002E-06   -0.72122E-06   776   0.713E-03
 276 F= -.87268955E+03 E0= -.87268955E+03  d E =-.581547E-04
       N       E                     dE             d eps       ncg     rms          rms(c)
DAV:   1    -0.872689561325E+03   -0.61690E-05   -0.16176E-04   720   0.239E-02    0.493E-03
DAV:   2    -0.872689561503E+03   -0.17786E-06   -0.44993E-06   736   0.432E-03
 277 F= -.87268956E+03 E0= -.87268956E+03  d E =-.696688E-05
       N       E                     dE             d eps       ncg     rms          rms(c)
DAV:   1    -0.872689561410E+03   -0.84590E-07   -0.36050E-07   408   0.132E-03    0.126E-03
DAV:   2    -0.872689561408E+03    0.24593E-08   -0.79413E-08   376   0.690E-04
 278 F= -.87268956E+03 E0= -.87268956E+03  d E =0.957298E-07
       N       E                     dE             d eps       ncg     rms          rms(c)
DAV:   1    -0.872689565483E+03   -0.40729E-05   -0.62807E-04   704   0.496E-02    0.510E-03
DAV:   2    -0.872689566633E+03   -0.11502E-05   -0.13458E-05   808   0.664E-03    0.246E-03
DAV:   3    -0.872689566543E+03    0.89814E-07   -0.24248E-07   424   0.115E-03
 279 F= -.87268957E+03 E0= -.87268957E+03  d E =-.513577E-05
