unknown system                          
           1
    13.729572   -0.004625   -0.001411
    -6.868739   11.890915    0.001820
    -0.001511    0.001307   14.890378
   Al   C    H    O    Si
   1   1   3  72  35
Direct configuration=     1
   0.55387300  0.66481658  0.56385675
   0.77794227  0.76833088  0.50342412
   0.80825618  0.79946375  0.43549548
   0.83699000  0.75168284  0.54035572
   0.76217411  0.82882484  0.53901930
   0.01558601  0.33218625  0.83377948
   0.20730348  0.41968812  0.53807952
   0.54756760  0.09503876  0.20346594
   0.87769514  0.75985255  0.86554123
   0.44823944  0.54580638  0.80269532
   0.12152151  0.87798277  0.13169241
   0.09149499  0.54649152  0.80054902
   0.43509135  0.21882516  0.46084932
   0.76125923  0.88043246  0.13642681
   0.21287664  0.78717017  0.53536101
   0.89946132  0.09865848  0.12413546
   0.23720622  0.11877600  0.86647796
   0.86877285  0.43308730  0.45165703
   0.43403271  0.87552034  0.54200439
   0.98229359  0.31550977  0.16495820
   0.65313325  0.00580804  0.50422569
   0.99971600  0.64916777  0.49917838
   0.33168033  0.31294136  0.16689117
   0.98183603  0.66417831  0.16355181
   0.33791346  0.33507339  0.50141546
   0.68329300  0.01742034  0.16642824
   0.66310523  0.98060136  0.83502520
   0.99751213  0.34863767  0.50133888
   0.78435307  0.21563964  0.46243280
   0.33493100  0.01843687  0.16463568
   0.90716483  0.45202856  0.20332009
   0.31122841  0.33202484  0.83358035
   0.44994430  0.90421290  0.79886588
   0.07026506  0.66423048  0.66612104
   0.66627847  0.06887828  0.33389380
   0.99614751  0.73972524  0.99921044
   0.59148821  0.92846889  0.66793282
   0.92907092  0.59853858  0.33125593
   0.25752395  0.25721864  0.99994951
   0.40921660  0.34042355  0.33344440
   0.78415654  0.56422532  0.46278107
   0.73784312  0.99555822  0.00090565
   0.56930117  0.79118598  0.53145075
   0.59473335  0.66187508  0.67239461
   0.25940020  0.00060104  0.99938933
   0.06623056  0.40653069  0.66748118
   0.40079294  0.06819221  0.33300809
   0.33343923  0.40488421  0.66680939
   0.74552780  0.74430815  0.00237683
   0.54652568  0.45140383  0.19766568
   0.87662150  0.11871789  0.86859226
   0.32964564  0.92871731  0.66749084
   0.55904706  0.44069445  0.46459792
   0.66536675  0.58913137  0.33141253
   0.93229687  0.33134736  0.33254519
   0.34617740  0.00387389  0.50147052
   0.31388431  0.98134276  0.83420284
   0.90321453  0.80296629  0.12831246
   0.23126261  0.76545095  0.78978559
   0.11831112  0.23740862  0.13256168
   0.56406859  0.13052899  0.45480011
   0.23058760  0.46645284  0.78787839
   0.19673387  0.09681568  0.12485036
   0.99902540  0.25937024  0.99971259
   0.09715038  0.90046874  0.87608744
   0.79977526  0.89996591  0.87456197
   0.42898789  0.55232183  0.53078573
   0.53004342  0.76475901  0.79144787
   0.76577510  0.52915247  0.20840942
   0.13329141  0.56606751  0.54171240
   0.46685056  0.23327918  0.21284854
   0.66901463  0.66225480  0.49677954
   0.76661481  0.23306791  0.21222943
   0.66034335  0.68104776  0.84159239
   0.01546280  0.68447224  0.83241188
   0.09549984  0.19541073  0.87609927
   0.68631189  0.66638557  0.16678482
   0.55869590  0.89300419  0.77240101
   0.99706632  0.77153879  0.89365018
   0.89626062  0.33214930  0.22852080
   0.77068037  0.99846118  0.10611921
   0.10241463  0.43656270  0.56274442
   0.33125920  0.43778615  0.77150703
   0.00053450  0.77172042  0.10480831
   0.33132843  0.89446263  0.77197170
   0.22810948  0.99896345  0.10472615
   0.22619603  0.22567702  0.10527697
   0.10181792  0.43790086  0.77222004
   0.66600653  0.10452756  0.43832701
   0.99944267  0.22709494  0.10461392
   0.89609307  0.33175420  0.43650214
   0.33127753  0.89850911  0.56203065
   0.89767072  0.56120185  0.43562526
   0.10265294  0.66543271  0.77178323
   0.32860831  0.43114591  0.56018149
   0.89569252  0.56076744  0.22662978
   0.77474238  0.77404377  0.10758119
   0.66744743  0.55733368  0.43544752
   0.43379452  0.33336744  0.43956918
   0.10529637  0.66645268  0.56130752
   0.22634991  0.99980656  0.89433192
   0.66616640  0.55865450  0.22506620
   0.55911152  0.66388197  0.77452163
   0.99708284  0.22636241  0.89446260
   0.77032019  0.77147915  0.89577795
   0.66633868  0.10395395  0.22948846
   0.22500755  0.22621916  0.89436612
   0.43773193  0.33333227  0.22821613
   0.76901608  0.99815061  0.89495093
   0.56090731  0.89789964  0.56180986
   0.43760517  0.10391223  0.22885160
   0.43635679  0.10443929  0.43735670
Direct configuration=     2
   0.55391436  0.66486710  0.56376794
   0.77797444  0.76838238  0.50345044
   0.80830224  0.79944086  0.43535258
   0.83708117  0.75172512  0.54039537
   0.76221480  0.82877979  0.53896375
   0.01553638  0.33216898  0.83376368
   0.20737888  0.41980749  0.53806019
   0.54750031  0.09500546  0.20347142
   0.87769210  0.75985060  0.86553912
   0.44817584  0.54572474  0.80271870
   0.12152081  0.87799195  0.13169847
   0.09145546  0.54646599  0.80056640
   0.43498176  0.21872572  0.46085547
   0.76123899  0.88047887  0.13642978
   0.21288513  0.78711156  0.53532361
   0.89948604  0.09868909  0.12410255
   0.23720560  0.11877570  0.86649907
   0.86889060  0.43313962  0.45167872
   0.43404190  0.87549956  0.54198446
   0.98227365  0.31546591  0.16494377
   0.65304913  0.00575168  0.50422357
   0.99971839  0.64916081  0.49923946
   0.33169096  0.31292392  0.16686556
   0.98178740  0.66413270  0.16358274
   0.33795543  0.33514437  0.50139444
   0.68326076  0.01739001  0.16638576
   0.66305803  0.98055210  0.83503324
   0.99747718  0.34857691  0.50129356
   0.78438744  0.21567702  0.46241258
   0.33493957  0.01843958  0.16466664
   0.90711585  0.45207305  0.20335882
   0.31121646  0.33205001  0.83356581
   0.44994016  0.90418778  0.79888850
   0.07028857  0.66422320  0.66611187
   0.66624381  0.06884193  0.33390477
   0.99617156  0.73976567  0.99917830
   0.59148871  0.92841870  0.66794517
   0.92904600  0.59852971  0.33122782
   0.25752389  0.25719463  0.99996298
   0.40916072  0.34038794  0.33343271
   0.78419967  0.56423393  0.46282492
   0.73784739  0.99556540  0.00094936
   0.56932711  0.79122541  0.53146248
   0.59483924  0.66194028  0.67241528
   0.25937586  0.00057561  0.99935854
   0.06617645  0.40651742  0.66744368
   0.40076063  0.06815890  0.33305982
   0.33343146  0.40495583  0.66683958
   0.74551801  0.74429910  0.00238202
   0.54647754  0.45140204  0.19769666
   0.87661794  0.11871840  0.86858083
   0.32965167  0.92869533  0.66747776
   0.55906205  0.44067383  0.46459807
   0.66532122  0.58913974  0.33139529
   0.93227679  0.33128742  0.33256335
   0.34620717  0.00386643  0.50142268
   0.31385275  0.98132082  0.83416389
   0.90322748  0.80297383  0.12833701
   0.23128245  0.76545618  0.78973906
   0.11830680  0.23738941  0.13255601
   0.56409155  0.13062262  0.45478294
   0.23063547  0.46643552  0.78787769
   0.19671974  0.09685443  0.12487516
   0.99905026  0.25937640  0.99975353
   0.09712504  0.90043521  0.87606860
   0.79977692  0.89997275  0.87457436
   0.42893791  0.55234439  0.53080320
   0.53005912  0.76480538  0.79145823
   0.76585771  0.52919926  0.20843000
   0.13332381  0.56608551  0.54171878
   0.46687304  0.23333944  0.21289493
   0.66893250  0.66225366  0.49673952
   0.76661994  0.23309962  0.21218911
   0.66036565  0.68105238  0.84161913
   0.01541322  0.68443799  0.83243062
   0.09552304  0.19537625  0.87610213
   0.68630523  0.66642416  0.16682655
   0.55867259  0.89306408  0.77242069
   0.99707719  0.77151941  0.89363912
   0.89631034  0.33218027  0.22852360
   0.77071430  0.99850764  0.10611475
   0.10241785  0.43654300  0.56271834
   0.33126383  0.43775808  0.77150630
   0.00049718  0.77162213  0.10475376
   0.33137728  0.89448700  0.77199258
   0.22813144  0.99899408  0.10471881
   0.22622154  0.22574545  0.10527480
   0.10186268  0.43790050  0.77221577
   0.66595592  0.10451509  0.43835443
   0.99944898  0.22706149  0.10461847
   0.89614615  0.33182885  0.43653278
   0.33135038  0.89853338  0.56203408
   0.89771457  0.56119148  0.43559257
   0.10267669  0.66547820  0.77179481
   0.32864769  0.43115058  0.56024125
   0.89571428  0.56078108  0.22667213
   0.77472585  0.77402590  0.10758748
   0.66741072  0.55729682  0.43550562
   0.43376139  0.33339089  0.43955107
   0.10524430  0.66638588  0.56127623
   0.22631081  0.99979011  0.89427133
   0.66619116  0.55859103  0.22502296
   0.55907801  0.66387373  0.77449764
   0.99707289  0.22632349  0.89454809
   0.77032713  0.77148306  0.89576522
   0.66630472  0.10390923  0.22945873
   0.22507648  0.22630324  0.89435098
   0.43772860  0.33337677  0.22817336
   0.76895243  0.99813285  0.89496517
   0.56087849  0.89790205  0.56185175
   0.43759381  0.10394219  0.22889240
   0.43633937  0.10436886  0.43740579
Direct configuration=     3
   0.55391861  0.66486872  0.56378454
   0.77803552  0.76834217  0.50334827
   0.80828866  0.79940275  0.43538180
   0.83707885  0.75173958  0.54039326
   0.76221428  0.82882254  0.53897435
   0.01553008  0.33213653  0.83377755
   0.20741312  0.41983810  0.53805731
   0.54750479  0.09499682  0.20347535
   0.87770591  0.75985098  0.86554038
   0.44822650  0.54576708  0.80272301
   0.12149180  0.87796645  0.13168726
   0.09145388  0.54647043  0.80056561
   0.43494299  0.21874605  0.46085398
   0.76123992  0.88045473  0.13642650
   0.21292351  0.78712473  0.53532057
   0.89948010  0.09867818  0.12409697
   0.23721013  0.11880112  0.86650045
   0.86892676  0.43317730  0.45168795
   0.43404187  0.87549155  0.54197845
   0.98227084  0.31546464  0.16494402
   0.65303168  0.00575808  0.50421783
   0.99966439  0.64913341  0.49922010
   0.33170118  0.31294079  0.16685706
   0.98179569  0.66414847  0.16356868
   0.33795159  0.33516791  0.50140546
   0.68324553  0.01739102  0.16637971
   0.66305854  0.98056134  0.83504990
   0.99753597  0.34858822  0.50131776
   0.78436291  0.21566092  0.46240441
   0.33493156  0.01844536  0.16466959
   0.90710881  0.45202191  0.20337229
   0.31122473  0.33204555  0.83356563
   0.44992435  0.90419061  0.79890532
   0.07029593  0.66422083  0.66612041
   0.66622918  0.06883561  0.33389849
   0.99617656  0.73976065  0.99917040
   0.59148797  0.92841363  0.66796113
   0.92905385  0.59854152  0.33126339
   0.25753401  0.25720157  0.99994582
   0.40914335  0.34038241  0.33341903
   0.78419469  0.56423366  0.46283062
   0.73784478  0.99557242  0.00092239
   0.56933623  0.79124689  0.53146518
   0.59485795  0.66195917  0.67237739
   0.25936382  0.00056768  0.99934354
   0.06616996  0.40651740  0.66745260
   0.40075455  0.06814846  0.33305373
   0.33343069  0.40495818  0.66683442
   0.74551802  0.74429810  0.00238064
   0.54649656  0.45143398  0.19769059
   0.87659707  0.11869889  0.86858864
   0.32966549  0.92869341  0.66748946
   0.55903706  0.44063541  0.46460554
   0.66530929  0.58911743  0.33141595
   0.93227404  0.33127843  0.33255659
   0.34617998  0.00380112  0.50145057
   0.31384465  0.98132312  0.83415359
   0.90322904  0.80296211  0.12833547
   0.23130306  0.76547160  0.78973030
   0.11830705  0.23739074  0.13255878
   0.56411503  0.13065396  0.45478537
   0.23061597  0.46642879  0.78787718
   0.19672680  0.09686072  0.12487804
   0.99906036  0.25938475  0.99975838
   0.09712374  0.90043185  0.87605460
   0.79977267  0.89998788  0.87458109
   0.42894843  0.55237239  0.53081616
   0.53006070  0.76480655  0.79146016
   0.76584624  0.52920252  0.20842956
   0.13332556  0.56605641  0.54171415
   0.46688002  0.23334060  0.21290969
   0.66895461  0.66228410  0.49673346
   0.76660910  0.23308624  0.21218036
   0.66032184  0.68103232  0.84160130
   0.01541431  0.68441422  0.83242071
   0.09551474  0.19537534  0.87611068
   0.68629496  0.66640648  0.16684838
   0.55867494  0.89303039  0.77241393
   0.99705247  0.77152308  0.89362428
   0.89629404  0.33218643  0.22852881
   0.77072233  0.99851212  0.10612786
   0.10240948  0.43653970  0.56270167
   0.33126153  0.43776954  0.77151140
   0.00052225  0.77165286  0.10478107
   0.33135986  0.89447509  0.77197179
   0.22812096  0.99899846  0.10471814
   0.22620703  0.22571777  0.10527363
   0.10184610  0.43788859  0.77220992
   0.66598801  0.10454428  0.43834964
   0.99946297  0.22707173  0.10463303
   0.89611681  0.33178519  0.43650728
   0.33129482  0.89848391  0.56201545
   0.89772754  0.56122551  0.43560517
   0.10266129  0.66544912  0.77179052
   0.32864027  0.43117034  0.56022951
   0.89571565  0.56078836  0.22666538
   0.77473575  0.77406100  0.10759640
   0.66745522  0.55732504  0.43546254
   0.43376315  0.33333354  0.43953903
   0.10528723  0.66641277  0.56129398
   0.22630629  0.99979051  0.89428295
   0.66619902  0.55861829  0.22504127
   0.55907625  0.66387154  0.77452491
   0.99708939  0.22634417  0.89451856
   0.77033140  0.77148867  0.89577733
   0.66630598  0.10392774  0.22946551
   0.22506307  0.22627117  0.89436666
   0.43771023  0.33335935  0.22820050
   0.76896937  0.99813791  0.89497855
   0.56088185  0.89788639  0.56185338
   0.43757838  0.10395348  0.22892246
   0.43635145  0.10440874  0.43738565
Direct configuration=     4
   0.55393075  0.66488632  0.56378863
   0.77803438  0.76836036  0.50335735
   0.80830856  0.79937687  0.43533538
   0.83709647  0.75175289  0.54039038
   0.76224856  0.82880686  0.53893029
   0.01553636  0.33213770  0.83376859
   0.20743050  0.41988464  0.53805294
   0.54747638  0.09498654  0.20348632
   0.87768393  0.75984906  0.86553616
   0.44823567  0.54576749  0.80272941
   0.12150642  0.87798563  0.13167844
   0.09144875  0.54645132  0.80056729
   0.43488119  0.21869182  0.46085661
   0.76123856  0.88046168  0.13642692
   0.21291728  0.78708405  0.53530669
   0.89948575  0.09867307  0.12409166
   0.23721515  0.11879724  0.86650224
   0.86898207  0.43319431  0.45169766
   0.43403217  0.87547773  0.54197399
   0.98225849  0.31546490  0.16495470
   0.65300688  0.00576923  0.50421071
   0.99968461  0.64914699  0.49925108
   0.33170629  0.31295131  0.16683971
   0.98179639  0.66414195  0.16356657
   0.33797154  0.33519030  0.50139569
   0.68322994  0.01739200  0.16636977
   0.66304803  0.98055930  0.83506658
   0.99752694  0.34855606  0.50129478
   0.78436535  0.21567110  0.46239840
   0.33491912  0.01845819  0.16467710
   0.90709861  0.45202374  0.20339179
   0.31122817  0.33203824  0.83356844
   0.44992600  0.90419036  0.79892365
   0.07030805  0.66421910  0.66611208
   0.66621229  0.06883031  0.33389951
   0.99618460  0.73976329  0.99917324
   0.59148876  0.92840551  0.66796563
   0.92906188  0.59855687  0.33126136
   0.25754561  0.25720715  0.99995359
   0.40911175  0.34036825  0.33342272
   0.78419502  0.56423342  0.46283935
   0.73784333  0.99557914  0.00093818
   0.56935208  0.79124971  0.53146509
   0.59487947  0.66198959  0.67238728
   0.25934495  0.00055688  0.99935085
   0.06616135  0.40651740  0.66744915
   0.40073767  0.06813120  0.33306995
   0.33343013  0.40496943  0.66683751
   0.74551861  0.74429673  0.00239066
   0.54649077  0.45144389  0.19769388
   0.87660586  0.11870788  0.86859870
   0.32967942  0.92868615  0.66746859
   0.55905383  0.44062997  0.46459936
   0.66529557  0.58909965  0.33141066
   0.93226941  0.33125879  0.33255147
   0.34619026  0.00379549  0.50143489
   0.31382479  0.98132730  0.83414132
   0.90322039  0.80294848  0.12833675
   0.23128935  0.76545088  0.78971519
   0.11831888  0.23739002  0.13256572
   0.56413020  0.13070504  0.45478372
   0.23059692  0.46642105  0.78787921
   0.19672935  0.09685588  0.12488413
   0.99907593  0.25939096  0.99975808
   0.09712128  0.90042980  0.87603332
   0.79976932  0.89997695  0.87458999
   0.42895696  0.55240968  0.53083353
   0.53005832  0.76479104  0.79146562
   0.76585160  0.52921059  0.20843361
   0.13333041  0.56606274  0.54170781
   0.46689096  0.23334878  0.21293425
   0.66898679  0.66230034  0.49670077
   0.76660853  0.23308457  0.21216895
   0.66032851  0.68103990  0.84161403
   0.01540442  0.68439495  0.83241862
   0.09551363  0.19537074  0.87612123
   0.68630653  0.66642999  0.16685948
   0.55866896  0.89302251  0.77243086
   0.99705547  0.77151365  0.89361260
   0.89627269  0.33215228  0.22852626
   0.77071112  0.99851096  0.10612224
   0.10243310  0.43653653  0.56270800
   0.33127644  0.43778907  0.77151867
   0.00052070  0.77166631  0.10477106
   0.33135626  0.89447490  0.77196338
   0.22810642  0.99898764  0.10471441
   0.22620878  0.22571762  0.10526472
   0.10181800  0.43787013  0.77221030
   0.66598173  0.10453771  0.43833834
   0.99946671  0.22708007  0.10463685
   0.89613266  0.33178064  0.43651459
   0.33129824  0.89845377  0.56202954
   0.89771264  0.56123339  0.43561746
   0.10267339  0.66544426  0.77179745
   0.32865911  0.43120633  0.56022138
   0.89572324  0.56078832  0.22667187
   0.77473695  0.77405197  0.10760721
   0.66744347  0.55730136  0.43546732
   0.43374047  0.33333998  0.43953616
   0.10529423  0.66640921  0.56128950
   0.22630127  0.99979339  0.89426841
   0.66619643  0.55863153  0.22506157
   0.55908997  0.66388820  0.77449256
   0.99707887  0.22632381  0.89451670
   0.77031583  0.77148488  0.89577053
   0.66630048  0.10393489  0.22946702
   0.22505139  0.22626637  0.89436664
   0.43771603  0.33337433  0.22820466
   0.76896875  0.99814437  0.89497857
   0.56087740  0.89788871  0.56186279
   0.43757924  0.10396238  0.22892716
   0.43634190  0.10441018  0.43740166
Direct configuration=     5
   0.55395869  0.66490953  0.56378474
   0.77805947  0.76835950  0.50333259
   0.80832979  0.79934981  0.43530026
   0.83711361  0.75176814  0.54038533
   0.76227695  0.82881694  0.53889553
   0.01552727  0.33211851  0.83376786
   0.20746801  0.41992935  0.53804397
   0.54746618  0.09497840  0.20349767
   0.87768186  0.75984684  0.86553274
   0.44824761  0.54577140  0.80273192
   0.12150077  0.87798467  0.13167476
   0.09144045  0.54643998  0.80057145
   0.43481503  0.21867863  0.46086146
   0.76123789  0.88047103  0.13642816
   0.21293268  0.78706492  0.53529064
   0.89949454  0.09867483  0.12408614
   0.23721818  0.11879861  0.86650319
   0.86904025  0.43322099  0.45170604
   0.43403536  0.87545741  0.54197080
   0.98225537  0.31545767  0.16495493
   0.65297341  0.00576261  0.50421527
   0.99968568  0.64915379  0.49927180
   0.33172251  0.31296207  0.16682820
   0.98180012  0.66414615  0.16355980
   0.33798042  0.33522527  0.50139720
   0.68321458  0.01739946  0.16636391
   0.66303426  0.98055313  0.83508098
   0.99754860  0.34853647  0.50128915
   0.78436144  0.21567345  0.46239199
   0.33491013  0.01847584  0.16468710
   0.90708611  0.45201556  0.20341343
   0.31122942  0.33203874  0.83356744
   0.44991933  0.90418740  0.79893803
   0.07032378  0.66421720  0.66611818
   0.66619700  0.06882449  0.33389160
   0.99619369  0.73977114  0.99916384
   0.59148697  0.92839478  0.66797643
   0.92906660  0.59857196  0.33126747
   0.25755484  0.25720990  0.99994989
   0.40907837  0.34035598  0.33342816
   0.78418788  0.56423111  0.46285066
   0.73784135  0.99558658  0.00093815
   0.56937136  0.79126533  0.53146569
   0.59491081  0.66202140  0.67238013
   0.25932350  0.00054502  0.99934010
   0.06615029  0.40651365  0.66743793
   0.40072310  0.06811712  0.33307765
   0.33343033  0.40498752  0.66683150
   0.74552092  0.74429694  0.00239640
   0.54648369  0.45145385  0.19770186
   0.87660213  0.11870537  0.86860481
   0.32969114  0.92867824  0.66746653
   0.55905511  0.44060841  0.46459157
   0.66528191  0.58908659  0.33142270
   0.93226004  0.33123326  0.33254879
   0.34619561  0.00376946  0.50143197
   0.31381315  0.98132032  0.83411505
   0.90321697  0.80294095  0.12834172
   0.23129663  0.76545000  0.78970105
   0.11831671  0.23738965  0.13257283
   0.56415349  0.13075747  0.45477868
   0.23058926  0.46641117  0.78788026
   0.19672859  0.09685840  0.12488953
   0.99909225  0.25939586  0.99975455
   0.09711341  0.90042167  0.87601040
   0.79976598  0.89998418  0.87459858
   0.42896481  0.55244772  0.53084784
   0.53005457  0.76478761  0.79147137
   0.76585320  0.52922344  0.20844144
   0.13333370  0.56605513  0.54170199
   0.46690390  0.23337222  0.21296138
   0.66899479  0.66230453  0.49667822
   0.76659207  0.23307254  0.21215540
   0.66031733  0.68103840  0.84161479
   0.01539377  0.68437812  0.83241880
   0.09550876  0.19536043  0.87612951
   0.68631212  0.66644649  0.16687930
   0.55866257  0.89302370  0.77244647
   0.99704786  0.77150361  0.89360803
   0.89626687  0.33214438  0.22853292
   0.77070568  0.99851183  0.10612646
   0.10241665  0.43653364  0.56270435
   0.33127312  0.43779132  0.77152849
   0.00051759  0.77165746  0.10476475
   0.33135821  0.89447558  0.77196748
   0.22811024  0.99899712  0.10471340
   0.22621851  0.22571933  0.10526575
   0.10181341  0.43786207  0.77220633
   0.66596094  0.10454802  0.43833539
   0.99947001  0.22708035  0.10463791
   0.89615124  0.33179077  0.43651374
   0.33130396  0.89844711  0.56201158
   0.89773149  0.56123753  0.43562699
   0.10266713  0.66542725  0.77179068
   0.32867657  0.43122759  0.56022996
   0.89572607  0.56079219  0.22667894
   0.77473232  0.77404859  0.10760647
   0.66743421  0.55728824  0.43547752
   0.43373567  0.33333531  0.43953091
   0.10528190  0.66638123  0.56128805
   0.22628984  0.99978813  0.89426896
   0.66619878  0.55863089  0.22505578
   0.55910249  0.66389145  0.77449399
   0.99708131  0.22632490  0.89453040
   0.77030477  0.77147785  0.89578225
   0.66627821  0.10392342  0.22945926
   0.22505983  0.22627797  0.89436629
   0.43771530  0.33338702  0.22819235
   0.76896164  0.99813861  0.89498720
   0.56087511  0.89789180  0.56186369
   0.43756053  0.10395694  0.22893961
   0.43633546  0.10438451  0.43741191
Direct configuration=     6
   0.55398920  0.66493669  0.56377968
   0.77808456  0.76835548  0.50329471
   0.80835012  0.79932338  0.43527520
   0.83713129  0.75177887  0.54038033
   0.76230183  0.82883363  0.53886280
   0.01552205  0.33210785  0.83376200
   0.20748112  0.41996964  0.53803936
   0.54744015  0.09497111  0.20350594
   0.87767335  0.75984393  0.86553233
   0.44825166  0.54576894  0.80273079
   0.12149622  0.87798499  0.13167082
   0.09143194  0.54642697  0.80057558
   0.43475546  0.21862940  0.46086462
   0.76123752  0.88046847  0.13642854
   0.21294001  0.78704096  0.53527901
   0.89949270  0.09867002  0.12408089
   0.23722017  0.11880512  0.86650468
   0.86909145  0.43324470  0.45171485
   0.43403103  0.87543722  0.54196702
   0.98225113  0.31545282  0.16495525
   0.65295286  0.00577715  0.50420970
   0.99967229  0.64915555  0.49928243
   0.33173066  0.31296989  0.16681338
   0.98179730  0.66413761  0.16355964
   0.33799293  0.33525738  0.50139642
   0.68320650  0.01739803  0.16635116
   0.66302564  0.98055007  0.83509643
   0.99756184  0.34851476  0.50127995
   0.78436284  0.21568171  0.46238440
   0.33490148  0.01848943  0.16469365
   0.90707506  0.45200818  0.20343341
   0.31123350  0.33204530  0.83356349
   0.44991524  0.90418515  0.79895223
   0.07033495  0.66421214  0.66611431
   0.66618226  0.06882021  0.33389323
   0.99620101  0.73977767  0.99915755
   0.59148187  0.92838423  0.66798612
   0.92907007  0.59858498  0.33127804
   0.25756258  0.25721210  0.99995077
   0.40905155  0.34034861  0.33341474
   0.78420045  0.56422510  0.46285937
   0.73783777  0.99559251  0.00094329
   0.56939299  0.79128604  0.53146505
   0.59494144  0.66204986  0.67237933
   0.25930726  0.00053471  0.99933873
   0.06613963  0.40650920  0.66743851
   0.40071097  0.06810380  0.33308679
   0.33343227  0.40500522  0.66684525
   0.74551922  0.74429350  0.00239907
   0.54648265  0.45146928  0.19770617
   0.87659654  0.11870059  0.86861124
   0.32970247  0.92866901  0.66745838
   0.55905119  0.44058322  0.46458758
   0.66527029  0.58907304  0.33142501
   0.93225226  0.33120960  0.33255179
   0.34620009  0.00375213  0.50142713
   0.31379484  0.98132383  0.83410372
   0.90321282  0.80293417  0.12834446
   0.23129476  0.76544053  0.78969058
   0.11832445  0.23738993  0.13257696
   0.56415981  0.13080540  0.45477487
   0.23058415  0.46640268  0.78788189
   0.19672787  0.09686393  0.12489333
   0.99910715  0.25940368  0.99976476
   0.09710569  0.90041292  0.87599080
   0.79976098  0.89997763  0.87460738
   0.42897443  0.55248096  0.53086123
   0.53005156  0.76478707  0.79147672
   0.76586187  0.52923438  0.20844755
   0.13333239  0.56604550  0.54169478
   0.46691410  0.23337805  0.21298578
   0.66899682  0.66231184  0.49666939
   0.76658338  0.23306761  0.21214450
   0.66031876  0.68104042  0.84162262
   0.01538799  0.68436253  0.83241672
   0.09550906  0.19535189  0.87613669
   0.68631372  0.66645879  0.16689752
   0.55865450  0.89301999  0.77245247
   0.99704374  0.77149945  0.89359938
   0.89625612  0.33213349  0.22853203
   0.77070557  0.99852279  0.10613063
   0.10242822  0.43652981  0.56269426
   0.33127592  0.43779439  0.77152526
   0.00051770  0.77165474  0.10475925
   0.33135801  0.89446777  0.77196139
   0.22810362  0.99899738  0.10470977
   0.22621986  0.22572360  0.10526580
   0.10180537  0.43784925  0.77220070
   0.66595615  0.10455581  0.43833145
   0.99947297  0.22707896  0.10463612
   0.89615985  0.33178162  0.43651384
   0.33130301  0.89842333  0.56201198
   0.89774025  0.56125090  0.43563329
   0.10266625  0.66541524  0.77179626
   0.32869311  0.43125480  0.56023237
   0.89572957  0.56080193  0.22668261
   0.77473342  0.77405905  0.10761370
   0.66743182  0.55728054  0.43547875
   0.43372302  0.33333557  0.43952890
   0.10529313  0.66637891  0.56129296
   0.22628084  0.99977829  0.89425519
   0.66619765  0.55863362  0.22506115
   0.55910281  0.66389374  0.77449155
   0.99707929  0.22631964  0.89453560
   0.77030649  0.77147959  0.89578522
   0.66626551  0.10391954  0.22945723
   0.22506131  0.22627624  0.89436587
   0.43771164  0.33339561  0.22820420
   0.76895720  0.99814151  0.89499261
   0.56087509  0.89788550  0.56187404
   0.43755637  0.10396530  0.22895240
   0.43633247  0.10439762  0.43741477
Direct configuration=     7
   0.55403351  0.66497873  0.56377859
   0.77811109  0.76835951  0.50326262
   0.80838927  0.79928078  0.43521914
   0.83715743  0.75179268  0.54036658
   0.76235077  0.82884928  0.53879276
   0.01551265  0.33208459  0.83375629
   0.20753335  0.42003084  0.53803283
   0.54741769  0.09495795  0.20351683
   0.87766820  0.75983775  0.86553135
   0.44826606  0.54577406  0.80272677
   0.12148693  0.87798355  0.13166369
   0.09141878  0.54640259  0.80058225
   0.43465494  0.21860477  0.46086958
   0.76123691  0.88048232  0.13642967
   0.21295658  0.78700717  0.53526169
   0.89949472  0.09866695  0.12407387
   0.23722273  0.11880275  0.86650642
   0.86917549  0.43327860  0.45172830
   0.43402699  0.87540117  0.54196246
   0.98224015  0.31544507  0.16495743
   0.65291296  0.00579157  0.50421029
   0.99967393  0.64917125  0.49931240
   0.33175277  0.31298801  0.16679430
   0.98180007  0.66413349  0.16355154
   0.33801201  0.33530625  0.50139568
   0.68318411  0.01739950  0.16633978
   0.66300498  0.98054306  0.83511716
   0.99758393  0.34847815  0.50126595
   0.78435360  0.21568549  0.46237341
   0.33488710  0.01851203  0.16470309
   0.90705731  0.45199794  0.20346672
   0.31123460  0.33204383  0.83356391
   0.44990630  0.90418335  0.79897731
   0.07035131  0.66420161  0.66611682
   0.66615703  0.06881424  0.33389032
   0.99621185  0.73978575  0.99914921
   0.59147372  0.92837052  0.66799771
   0.92907687  0.59860836  0.33128460
   0.25757447  0.25721648  0.99994960
   0.40900852  0.34034006  0.33342225
   0.78418712  0.56421064  0.46287111
   0.73783155  0.99560193  0.00095264
   0.56943473  0.79131479  0.53145956
   0.59498863  0.66209679  0.67238150
   0.25927964  0.00051729  0.99932765
   0.06612556  0.40650297  0.66742735
   0.40069077  0.06808069  0.33309707
   0.33343582  0.40502886  0.66683760
   0.74551641  0.74428717  0.00241118
   0.54647389  0.45148567  0.19771118
   0.87659550  0.11870087  0.86862401
   0.32972121  0.92865229  0.66745053
   0.55905270  0.44054896  0.46458133
   0.66525215  0.58904848  0.33143439
   0.93223907  0.33116974  0.33254313
   0.34620766  0.00371840  0.50142305
   0.31377607  0.98131885  0.83407396
   0.90321090  0.80292046  0.12834624
   0.23129266  0.76542565  0.78967656
   0.11832708  0.23739107  0.13258353
   0.56418489  0.13088311  0.45476749
   0.23056943  0.46638978  0.78788478
   0.19672666  0.09686900  0.12489780
   0.99913028  0.25941888  0.99976858
   0.09709498  0.90040168  0.87595807
   0.79975236  0.89997744  0.87462219
   0.42899528  0.55253605  0.53088530
   0.53004601  0.76478347  0.79148452
   0.76586682  0.52925036  0.20845574
   0.13332502  0.56603147  0.54168140
   0.46693028  0.23339912  0.21302614
   0.66901381  0.66232400  0.49665172
   0.76656693  0.23305574  0.21212799
   0.66031223  0.68103932  0.84163110
   0.01537766  0.68433912  0.83241454
   0.09550226  0.19534039  0.87614959
   0.68631822  0.66648031  0.16692400
   0.55864927  0.89300979  0.77246756
   0.99703274  0.77149005  0.89357997
   0.89624021  0.33211478  0.22853438
   0.77070740  0.99852633  0.10612978
   0.10242901  0.43652085  0.56269114
   0.33128103  0.43780873  0.77153446
   0.00051649  0.77165352  0.10475523
   0.33134748  0.89445868  0.77195118
   0.22808755  0.99899723  0.10470793
   0.22622127  0.22572481  0.10525907
   0.10179335  0.43783032  0.77219575
   0.66594947  0.10458401  0.43832558
   0.99948376  0.22707727  0.10464923
   0.89617313  0.33177015  0.43651611
   0.33129649  0.89838458  0.56200686
   0.89775100  0.56126374  0.43564174
   0.10266473  0.66539430  0.77180195
   0.32870811  0.43130812  0.56024087
   0.89573532  0.56080808  0.22670025
   0.77473373  0.77406367  0.10762364
   0.66744805  0.55726644  0.43547642
   0.43369424  0.33330245  0.43951776
   0.10530941  0.66637567  0.56129560
   0.22626088  0.99977549  0.89424331
   0.66620201  0.55864955  0.22507634
   0.55910818  0.66390073  0.77448843
   0.99707888  0.22631101  0.89453407
   0.77030493  0.77148139  0.89578999
   0.66624308  0.10391785  0.22945611