 running on   48 total cores
 distrk:  each k-point on   48 cores,    1 groups
 distr:  one band on    6 cores,    8 groups
 using from now: INCAR     
 vasp.5.4.1 05Feb16 (build Feb 08 2018 09:21:51) complex                        
  
 POSCAR found :  5 types and     112 ions
 LDA part: xc-table for Pade appr. of Perdew
 POSCAR, INCAR and KPOINTS ok, starting setup
 WARNING: small aliasing (wrap around) errors must be expected
 FFT: planning ...
 WAVECAR not read
 entering main loop
       N       E                     dE             d eps       ncg     rms          rms(c)
DAV:   1     0.449979893646E+04    0.44998E+04   -0.24415E+05   744   0.116E+03
DAV:   2    -0.403414197055E+03   -0.49032E+04   -0.47987E+04   880   0.327E+02
DAV:   3    -0.975756894213E+03   -0.57234E+03   -0.57022E+03   816   0.121E+02
DAV:   4    -0.989181851939E+03   -0.13425E+02   -0.13387E+02   824   0.200E+01
DAV:   5    -0.989601023549E+03   -0.41917E+00   -0.41872E+00   832   0.320E+00    0.856E+01
DAV:   6    -0.873707905503E+03    0.11589E+03   -0.50689E+02   800   0.353E+01    0.396E+01
DAV:   7    -0.873193602666E+03    0.51430E+00   -0.16353E+01   912   0.600E+00    0.150E+01
DAV:   8    -0.872712499700E+03    0.48110E+00   -0.11534E+00   824   0.231E+00    0.600E+00
DAV:   9    -0.872569762414E+03    0.14274E+00   -0.44435E-01   824   0.144E+00    0.102E+00
DAV:  10    -0.872570079145E+03   -0.31673E-03   -0.86082E-02   808   0.621E-01    0.681E-01
DAV:  11    -0.872570737033E+03   -0.65789E-03   -0.21106E-02   784   0.301E-01    0.298E-01
DAV:  12    -0.872577059840E+03   -0.63228E-02   -0.72396E-03   792   0.215E-01    0.150E-01
DAV:  13    -0.872588574508E+03   -0.11515E-01   -0.44314E-03   808   0.183E-01    0.177E-01
DAV:  14    -0.872598104747E+03   -0.95302E-02   -0.24136E-03   808   0.117E-01    0.563E-02
DAV:  15    -0.872600062918E+03   -0.19582E-02   -0.45636E-04   824   0.489E-02    0.546E-02
DAV:  16    -0.872600620196E+03   -0.55728E-03   -0.14064E-04   824   0.269E-02    0.380E-02
DAV:  17    -0.872600923196E+03   -0.30300E-03   -0.85892E-05   800   0.174E-02    0.181E-02
DAV:  18    -0.872601257100E+03   -0.33390E-03   -0.26701E-05   784   0.935E-03    0.953E-03
DAV:  19    -0.872601296365E+03   -0.39265E-04   -0.88319E-06   744   0.694E-03    0.746E-03
DAV:  20    -0.872601310751E+03   -0.14386E-04   -0.32629E-06   640   0.373E-03    0.404E-03
DAV:  21    -0.872601328552E+03   -0.17801E-04   -0.17765E-06   584   0.239E-03    0.167E-03
DAV:  22    -0.872601332839E+03   -0.42866E-05   -0.10312E-06   528   0.207E-03    0.124E-03
DAV:  23    -0.872601333249E+03   -0.40984E-06   -0.17646E-07   536   0.845E-04
   1 F= -.88267308E+03 E0= -.88267308E+03  d E =-.839905E-24
Running "mpirun -np 48 vasp"
