 112 112   0   0
  0.2170079E+02  0.1372957E-08  0.1373220E-08  0.1489038E-08  0.5000000E-15
  1.000000000000000E-004
  CAR 
 unknown system                          
      8.26390703    -23.89431408  301     -2.40190297      1.00000000
    -23.894  0.0000E+00  0.0000E+00
    -23.787  0.0000E+00  0.0000E+00
    -23.680  0.0000E+00  0.0000E+00
    -23.573  0.0000E+00  0.0000E+00
    -23.466  0.0000E+00  0.0000E+00
    -23.358  0.0000E+00  0.0000E+00
    -23.251  0.0000E+00  0.0000E+00
    -23.144  0.0000E+00  0.0000E+00
    -23.037  0.0000E+00  0.0000E+00
    -22.930  0.0000E+00  0.0000E+00
    -22.822  0.0000E+00  0.0000E+00
    -22.715  0.0000E+00  0.0000E+00
    -22.608  0.0000E+00  0.0000E+00
    -22.501  0.0000E+00  0.0000E+00
    -22.394  0.1866E+02  0.2000E+01
    -22.286  0.0000E+00  0.2000E+01
    -22.179  0.0000E+00  0.2000E+01
    -22.072  0.3852E-09  0.2000E+01
    -21.965  0.1866E+02  0.4000E+01
    -21.858  0.5959E-04  0.4000E+01
    -21.750  0.6095E+02  0.1053E+02
    -21.643  0.1866E+02  0.1400E+02
    -21.536  0.2245E+02  0.1641E+02
    -21.429  0.2499E+02  0.2068E+02
    -21.322  0.5597E+02  0.2800E+02
    -21.214  0.2962E+02  0.3318E+02
    -21.107  0.1866E+02  0.3600E+02
    -21.000  0.3695E+02  0.3996E+02
    -20.893  0.4563E+02  0.4689E+02
    -20.786  0.1899E+02  0.5204E+02
    -20.678  0.1876E+02  0.5601E+02
    -20.571  0.1477E-01  0.5800E+02
    -20.464  0.1866E+02  0.6200E+02
    -20.357  0.5595E+02  0.6800E+02
    -20.250  0.4544E+02  0.7287E+02
    -20.143  0.3739E+02  0.7801E+02
    -20.035  0.1455E+03  0.9760E+02
    -19.928  0.1320E+03  0.1202E+03
    -19.821  0.9158E+02  0.1338E+03
    -19.714  0.3732E+02  0.1380E+03
    -19.607  0.0000E+00  0.1380E+03
    -19.499  0.0000E+00  0.1380E+03
    -19.392  0.0000E+00  0.1380E+03
    -19.285  0.1866E+02  0.1400E+03
    -19.178  0.0000E+00  0.1400E+03
    -19.071  0.5594E-09  0.1400E+03
    -18.963  0.3726E+02  0.1440E+03
    -18.856  0.0000E+00  0.1440E+03
    -18.749  0.0000E+00  0.1440E+03
    -18.642  0.0000E+00  0.1440E+03
    -18.535  0.0000E+00  0.1440E+03
    -18.427  0.0000E+00  0.1440E+03
    -18.320  0.0000E+00  0.1440E+03
    -18.213  0.0000E+00  0.1440E+03
    -18.106  0.0000E+00  0.1440E+03
    -17.999  0.0000E+00  0.1440E+03
    -17.891  0.0000E+00  0.1440E+03
    -17.784  0.0000E+00  0.1440E+03
    -17.677  0.0000E+00  0.1440E+03
    -17.570  0.0000E+00  0.1440E+03
    -17.463  0.0000E+00  0.1440E+03
    -17.355  0.0000E+00  0.1440E+03
    -17.248  0.0000E+00  0.1440E+03
    -17.141  0.0000E+00  0.1440E+03
    -17.034  0.0000E+00  0.1440E+03
    -16.927  0.0000E+00  0.1440E+03
    -16.820  0.0000E+00  0.1440E+03
    -16.712  0.0000E+00  0.1440E+03
    -16.605  0.0000E+00  0.1440E+03
    -16.498  0.0000E+00  0.1440E+03
    -16.391  0.0000E+00  0.1440E+03
    -16.284  0.0000E+00  0.1440E+03
    -16.176  0.0000E+00  0.1440E+03
    -16.069  0.0000E+00  0.1440E+03
    -15.962  0.0000E+00  0.1440E+03
    -15.855  0.0000E+00  0.1440E+03
    -15.748  0.0000E+00  0.1440E+03
    -15.640  0.0000E+00  0.1440E+03
    -15.533  0.0000E+00  0.1440E+03
    -15.426  0.0000E+00  0.1440E+03
    -15.319  0.0000E+00  0.1440E+03
    -15.212  0.0000E+00  0.1440E+03
    -15.104  0.0000E+00  0.1440E+03
    -14.997  0.0000E+00  0.1440E+03
    -14.890  0.0000E+00  0.1440E+03
    -14.783  0.0000E+00  0.1440E+03
    -14.676  0.0000E+00  0.1440E+03
    -14.568  0.0000E+00  0.1440E+03
    -14.461  0.0000E+00  0.1440E+03
    -14.354  0.0000E+00  0.1440E+03
    -14.247  0.0000E+00  0.1440E+03
    -14.140  0.0000E+00  0.1440E+03
    -14.032  0.0000E+00  0.1440E+03
    -13.925  0.0000E+00  0.1440E+03
    -13.818  0.0000E+00  0.1440E+03
    -13.711  0.0000E+00  0.1440E+03
    -13.604  0.0000E+00  0.1440E+03
    -13.496  0.0000E+00  0.1440E+03
    -13.389  0.3733E-04  0.1440E+03
    -13.282  0.1866E+02  0.1460E+03
    -13.175  0.0000E+00  0.1460E+03
    -13.068  0.0000E+00  0.1460E+03
    -12.961  0.0000E+00  0.1460E+03
    -12.853  0.0000E+00  0.1460E+03
    -12.746  0.0000E+00  0.1460E+03
    -12.639  0.0000E+00  0.1460E+03
    -12.532  0.0000E+00  0.1460E+03
    -12.425  0.0000E+00  0.1460E+03
    -12.317  0.0000E+00  0.1460E+03
    -12.210  0.1848E+02  0.1480E+03
    -12.103  0.0000E+00  0.1480E+03
    -11.996  0.0000E+00  0.1480E+03
    -11.889  0.0000E+00  0.1480E+03
    -11.781  0.0000E+00  0.1480E+03
    -11.674  0.1866E+02  0.1500E+03
    -11.567  0.1789E+02  0.1519E+03
    -11.460  0.5777E-04  0.1520E+03
    -11.353  0.3732E+02  0.1560E+03
    -11.245  0.3555E+02  0.1598E+03
    -11.138  0.0000E+00  0.1600E+03
    -11.031  0.3131E+01  0.1603E+03
    -10.924  0.1866E+02  0.1640E+03
    -10.817  0.0000E+00  0.1640E+03
    -10.709  0.2830E-02  0.1640E+03
    -10.602  0.3724E+02  0.1700E+03
    -10.495  0.2072E+02  0.1742E+03
    -10.388  0.1867E+02  0.1780E+03
    -10.281  0.0000E+00  0.1800E+03
    -10.173  0.1859E+02  0.1820E+03
    -10.066  0.0000E+00  0.1820E+03
     -9.959  0.1372E+02  0.1835E+03
     -9.852  0.1873E+02  0.1860E+03
     -9.745  0.4927E-05  0.1880E+03
     -9.638  0.3732E+02  0.1920E+03
     -9.530  0.1023E-02  0.1940E+03
     -9.423  0.3731E+02  0.1980E+03
     -9.316  0.1045E+02  0.1991E+03
     -9.209  0.0000E+00  0.2000E+03
     -9.102  0.1866E+02  0.2020E+03
     -8.994  0.3562E-02  0.2020E+03
     -8.887  0.0000E+00  0.2040E+03
     -8.780  0.0000E+00  0.2040E+03
     -8.673  0.1869E+02  0.2060E+03
     -8.566  0.3731E+02  0.2120E+03
     -8.458  0.3732E+02  0.2160E+03
     -8.351  0.3741E+02  0.2200E+03
     -8.244  0.3880E+02  0.2262E+03
     -8.137  0.6222E+02  0.2347E+03
     -8.030  0.7458E+02  0.2440E+03
     -7.922  0.1922E+02  0.2481E+03
     -7.815  0.9863E+02  0.2606E+03
     -7.708  0.5665E+02  0.2681E+03
     -7.601  0.1939E+02  0.2721E+03
     -7.494  0.1852E+02  0.2760E+03
     -7.386  0.3763E+02  0.2800E+03
     -7.279  0.1171E+02  0.2833E+03
     -7.172  0.2478E+02  0.2867E+03
     -7.065  0.1866E+02  0.2900E+03
     -6.958  0.0000E+00  0.2900E+03
     -6.850  0.0000E+00  0.2900E+03
     -6.743  0.1003E-08  0.2900E+03
     -6.636  0.1866E+02  0.2920E+03
     -6.529  0.0000E+00  0.2920E+03
     -6.422  0.2464E-01  0.2920E+03
     -6.314  0.1675E+02  0.2958E+03
     -6.207  0.1866E+02  0.2980E+03
     -6.100  0.1870E+02  0.3000E+03
     -5.993  0.4929E+02  0.3073E+03
     -5.886  0.3767E+02  0.3140E+03
     -5.779  0.7193E+02  0.3257E+03
     -5.671  0.4196E+02  0.3325E+03
     -5.564  0.3732E+02  0.3380E+03
     -5.457  0.4222E+02  0.3425E+03
     -5.350  0.1848E+02  0.3460E+03
     -5.243  0.3732E+02  0.3500E+03
     -5.135  0.3867E+02  0.3541E+03
     -5.028  0.3547E+02  0.3598E+03
     -4.921  0.6404E+02  0.3689E+03
     -4.814  0.3822E+02  0.3761E+03
     -4.707  0.5785E+02  0.3842E+03
     -4.599  0.5561E+02  0.3920E+03
     -4.492  0.1057E+03  0.4073E+03
     -4.385  0.1335E+03  0.4243E+03
     -4.278  0.1263E+03  0.4415E+03
     -4.171  0.1127E+03  0.4561E+03
     -4.063  0.8272E+02  0.4669E+03
     -3.956  0.9353E+02  0.4820E+03
     -3.849  0.7117E+02  0.4936E+03
     -3.742  0.1096E+03  0.5077E+03
     -3.635  0.6926E+02  0.5174E+03
     -3.527  0.1938E+02  0.5221E+03
     -3.420  0.1866E+02  0.5260E+03
     -3.313  0.5911E+02  0.5323E+03
     -3.206  0.3579E+02  0.5378E+03
     -3.099  0.5715E+02  0.5441E+03
     -2.991  0.2575E+02  0.5488E+03
     -2.884  0.9829E+02  0.5625E+03
     -2.777  0.5457E+02  0.5718E+03
     -2.670  0.5597E+02  0.5780E+03
     -2.563  0.1866E+02  0.5800E+03
     -2.456  0.1852E+02  0.5820E+03
     -2.348  0.0000E+00  0.5820E+03
     -2.241  0.0000E+00  0.5820E+03
     -2.134  0.0000E+00  0.5820E+03
     -2.027  0.0000E+00  0.5820E+03
     -1.920  0.0000E+00  0.5820E+03
     -1.812  0.0000E+00  0.5820E+03
     -1.705  0.0000E+00  0.5820E+03
     -1.598  0.0000E+00  0.5820E+03
     -1.491  0.0000E+00  0.5820E+03
     -1.384  0.0000E+00  0.5820E+03
     -1.276  0.0000E+00  0.5820E+03
     -1.169  0.0000E+00  0.5820E+03
     -1.062  0.0000E+00  0.5820E+03
     -0.955  0.0000E+00  0.5820E+03
     -0.848  0.0000E+00  0.5820E+03
     -0.740  0.0000E+00  0.5820E+03
     -0.633  0.0000E+00  0.5820E+03
     -0.526  0.0000E+00  0.5820E+03
     -0.419  0.0000E+00  0.5820E+03
     -0.312  0.0000E+00  0.5820E+03
     -0.204  0.0000E+00  0.5820E+03
     -0.097  0.0000E+00  0.5820E+03
      0.010  0.0000E+00  0.5820E+03
      0.117  0.0000E+00  0.5820E+03
      0.224  0.0000E+00  0.5820E+03
      0.332  0.0000E+00  0.5820E+03
      0.439  0.0000E+00  0.5820E+03
      0.546  0.0000E+00  0.5820E+03
      0.653  0.0000E+00  0.5820E+03
      0.760  0.0000E+00  0.5820E+03
      0.868  0.0000E+00  0.5820E+03
      0.975  0.0000E+00  0.5820E+03
      1.082  0.0000E+00  0.5820E+03
      1.189  0.0000E+00  0.5820E+03
      1.296  0.0000E+00  0.5820E+03
      1.403  0.0000E+00  0.5820E+03
      1.511  0.0000E+00  0.5820E+03
      1.618  0.0000E+00  0.5820E+03
      1.725  0.0000E+00  0.5820E+03
      1.832  0.0000E+00  0.5820E+03
      1.939  0.0000E+00  0.5820E+03
      2.047  0.0000E+00  0.5820E+03
      2.154  0.0000E+00  0.5820E+03
      2.261  0.0000E+00  0.5820E+03
      2.368  0.0000E+00  0.5820E+03
      2.475  0.0000E+00  0.5820E+03
      2.583  0.0000E+00  0.5820E+03
      2.690  0.0000E+00  0.5820E+03
      2.797  0.0000E+00  0.5820E+03
      2.904  0.1310E+01  0.5821E+03
      3.011  0.0000E+00  0.5840E+03
      3.119  0.0000E+00  0.5840E+03
      3.226  0.0000E+00  0.5840E+03
      3.333  0.0000E+00  0.5840E+03
      3.440  0.0000E+00  0.5840E+03
      3.547  0.0000E+00  0.5840E+03
      3.655  0.0000E+00  0.5840E+03
      3.762  0.1866E+02  0.5860E+03
      3.869  0.1866E+02  0.5880E+03
      3.976  0.1866E+02  0.5900E+03
      4.083  0.0000E+00  0.5900E+03
      4.191  0.1638E-07  0.5900E+03
      4.298  0.3711E+02  0.5940E+03
      4.405  0.0000E+00  0.5960E+03
      4.512  0.1856E+02  0.5980E+03
      4.619  0.1215E+02  0.5993E+03
      4.727  0.0000E+00  0.6000E+03
      4.834  0.1866E+02  0.6020E+03
      4.941  0.8610E-04  0.6020E+03
      5.048  0.4370E+02  0.6067E+03
      5.155  0.4631E+02  0.6130E+03
      5.262  0.5615E+02  0.6220E+03
      5.370  0.0000E+00  0.6240E+03
      5.477  0.1866E+02  0.6260E+03
      5.584  0.1070E-07  0.6260E+03
      5.691  0.1866E+02  0.6280E+03
      5.798  0.3732E+02  0.6320E+03
      5.906  0.2279E+02  0.6344E+03
      6.013  0.1515E+02  0.6376E+03
      6.120  0.3182E+02  0.6414E+03
      6.227  0.3984E+02  0.6463E+03
      6.334  0.7235E+02  0.6578E+03
      6.442  0.3177E+02  0.6654E+03
      6.549  0.8344E+02  0.6769E+03
      6.656  0.7498E+02  0.6860E+03
      6.763  0.1067E+03  0.6994E+03
      6.870  0.1866E+02  0.7040E+03
      6.978  0.0000E+00  0.7040E+03
      7.085  0.0000E+00  0.7040E+03
      7.192  0.0000E+00  0.7040E+03
      7.299  0.0000E+00  0.7040E+03
      7.406  0.0000E+00  0.7040E+03
      7.514  0.0000E+00  0.7040E+03
      7.621  0.0000E+00  0.7040E+03
      7.728  0.0000E+00  0.7040E+03
      7.835  0.0000E+00  0.7040E+03
      7.942  0.0000E+00  0.7040E+03
      8.050  0.0000E+00  0.7040E+03
      8.157  0.0000E+00  0.7040E+03
      8.264  0.0000E+00  0.7040E+03
