 vasp.5.4.1 05Feb16 (build Feb 08 2018 09:21:51) complex                        
  
 executed on             LinuxIFC date 2019.11.13  15:48:18
 running on   48 total cores
 distrk:  each k-point on   48 cores,    1 groups
 distr:  one band on NCORES_PER_BAND=   6 cores,    8 groups


--------------------------------------------------------------------------------------------------------


 INCAR:
 POTCAR:    PAW_PBE Al 04Jan2001                  
 POTCAR:    PAW_PBE C 08Apr2002                   
 POTCAR:    PAW_PBE H 15Jun2001                   
 POTCAR:    PAW_PBE O 08Apr2002                   
 POTCAR:    PAW_PBE Si 05Jan2001                  
 POTCAR:    PAW_PBE Al 04Jan2001                  
   VRHFIN =Al: s2p1                                                             
   LEXCH  = PE                                                                  
   EATOM  =    53.5387 eV,    3.9350 Ry                                         
                                                                                
   TITEL  = PAW_PBE Al 04Jan2001                                                
   LULTRA =        F    use ultrasoft PP ?                                      
   IUNSCR =        1    unscreen: 0-lin 1-nonlin 2-no                           
   RPACOR =    1.500    partial core radius                                     
   POMASS =   26.981; ZVAL   =    3.000    mass and valenz                      
   RCORE  =    1.900    outmost cutoff radius                                   
   RWIGS  =    2.650; RWIGS  =    1.402    wigner-seitz radius (au A)           
   ENMAX  =  240.300; ENMIN  =  180.225 eV                                      
   ICORE  =        2    local potential                                         
   LCOR   =        T    correct aug charges                                     
   LPAW   =        T    paw PP                                                  
   EAUG   =  291.052                                                            
   DEXC   =    0.000                                                            
   RMAX   =    1.939    core radius for proj-oper                               
   RAUG   =    1.300    factor for augmentation sphere                          
   RDEP   =    1.966    radius for radial grids                                 
   RDEPT  =    1.856    core radius for aug-charge                              
                                                                                
   Atomic configuration                                                         
    6 entries                                                                   
     n  l   j            E        occ.                                          
     1  0  0.50     -1511.1048   2.0000                                         
     2  0  0.50      -108.1629   2.0000                                         
     2  1  1.50       -69.6402   6.0000                                         
     3  0  0.50        -7.7528   2.0000                                         
     3  1  1.50        -2.7121   1.0000                                         
     3  2  2.50        -2.7212   0.0000                                         
   Description                                                                  
     l       E           TYP  RCUT    TYP  RCUT                                 
     0     -7.7528455     23  1.900                                             
     0     -3.3096929     23  1.900                                             
     1     -2.7120682     23  1.900                                             
     1     13.6058260     23  1.900                                             
     2     -2.7211652      7  1.900                                             
  local pseudopotential read in
  partial core-charges read in
  partial kinetic energy density read in
  atomic valenz-charges read in
  non local Contribution for L=           0  read in
    real space projection operators read in
  non local Contribution for L=           0  read in
    real space projection operators read in
  non local Contribution for L=           1  read in
    real space projection operators read in
  non local Contribution for L=           1  read in
    real space projection operators read in
    PAW grid and wavefunctions read in
 
   number of l-projection  operators is LMAX  =           4
   number of lm-projection operators is LMMAX =           8
 
 POTCAR:    PAW_PBE C 08Apr2002                   
   VRHFIN =C: s2p2                                                              
   LEXCH  = PE                                                                  
   EATOM  =   147.1560 eV,   10.8157 Ry                                         
                                                                                
   TITEL  = PAW_PBE C 08Apr2002                                                 
   LULTRA =        F    use ultrasoft PP ?                                      
   IUNSCR =        1    unscreen: 0-lin 1-nonlin 2-no                           
   RPACOR =    1.200    partial core radius                                     
   POMASS =   12.011; ZVAL   =    4.000    mass and valenz                      
   RCORE  =    1.500    outmost cutoff radius                                   
   RWIGS  =    1.630; RWIGS  =    0.863    wigner-seitz radius (au A)           
   ENMAX  =  400.000; ENMIN  =  300.000 eV                                      
   ICORE  =        2    local potential                                         
   LCOR   =        T    correct aug charges                                     
   LPAW   =        T    paw PP                                                  
   EAUG   =  644.873                                                            
   DEXC   =    0.000                                                            
   RMAX   =    1.529    core radius for proj-oper                               
   RAUG   =    1.300    factor for augmentation sphere                          
   RDEP   =    1.501    radius for radial grids                                 
   RDEPT  =    1.300    core radius for aug-charge                              
                                                                                
   Atomic configuration                                                         
    4 entries                                                                   
     n  l   j            E        occ.                                          
     1  0  0.50      -273.3789   2.0000                                         
     2  0  0.50       -13.7508   2.0000                                         
     2  1  0.50        -5.2854   2.0000                                         
     3  2  1.50        -5.4423   0.0000                                         
   Description                                                                  
     l       E           TYP  RCUT    TYP  RCUT                                 
     0    -13.7508458     23  1.200                                             
     0     -8.2022199     23  1.200                                             
     1     -5.2854383     23  1.500                                             
     1     34.0145650     23  1.500                                             
     2     -5.4423304      7  1.500                                             
  local pseudopotential read in
  partial core-charges read in
  partial kinetic energy density read in
  atomic valenz-charges read in
  non local Contribution for L=           0  read in
    real space projection operators read in
  non local Contribution for L=           0  read in
    real space projection operators read in
  non local Contribution for L=           1  read in
    real space projection operators read in
  non local Contribution for L=           1  read in
    real space projection operators read in
    PAW grid and wavefunctions read in
 
   number of l-projection  operators is LMAX  =           4
   number of lm-projection operators is LMMAX =           8
 
 POTCAR:    PAW_PBE H 15Jun2001                   
   VRHFIN =H: ultrasoft test                                                    
   LEXCH  = PE                                                                  
   EATOM  =    12.4884 eV,    0.9179 Ry                                         
                                                                                
   TITEL  = PAW_PBE H 15Jun2001                                                 
   LULTRA =        F    use ultrasoft PP ?                                      
   IUNSCR =        0    unscreen: 0-lin 1-nonlin 2-no                           
   RPACOR =    0.000    partial core radius                                     
   POMASS =    1.000; ZVAL   =    1.000    mass and valenz                      
   RCORE  =    1.100    outmost cutoff radius                                   
   RWIGS  =    0.700; RWIGS  =    0.370    wigner-seitz radius (au A)           
   ENMAX  =  250.000; ENMIN  =  200.000 eV                                      
   RCLOC  =    0.701    cutoff for local pot                                    
   LCOR   =        T    correct aug charges                                     
   LPAW   =        T    paw PP                                                  
   EAUG   =  400.000                                                            
   RMAX   =    1.123    core radius for proj-oper                               
   RAUG   =    1.200    factor for augmentation sphere                          
   RDEP   =    1.112    radius for radial grids                                 
   RDEPT  =    0.926    core radius for aug-charge                              
                                                                                
   Atomic configuration                                                         
    2 entries                                                                   
     n  l   j            E        occ.                                          
     1  0  0.50        -6.4927   1.0000                                         
     2  1  0.50        -3.4015   0.0000                                         
   Description                                                                  
     l       E           TYP  RCUT    TYP  RCUT                                 
     0     -6.4927494     23  1.100                                             
     0      6.8029130     23  1.100                                             
     1     -4.0817478     23  1.100                                             
  local pseudopotential read in
  atomic valenz-charges read in
  non local Contribution for L=           0  read in
    real space projection operators read in
  non local Contribution for L=           0  read in
    real space projection operators read in
  non local Contribution for L=           1  read in
    real space projection operators read in
    PAW grid and wavefunctions read in
 
   number of l-projection  operators is LMAX  =           3
   number of lm-projection operators is LMMAX =           5
 
 POTCAR:    PAW_PBE O 08Apr2002                   
   VRHFIN =O: s2p4                                                              
   LEXCH  = PE                                                                  
   EATOM  =   432.3788 eV,   31.7789 Ry                                         
                                                                                
   TITEL  = PAW_PBE O 08Apr2002                                                 
   LULTRA =        F    use ultrasoft PP ?                                      
   IUNSCR =        1    unscreen: 0-lin 1-nonlin 2-no                           
   RPACOR =    1.200    partial core radius                                     
   POMASS =   16.000; ZVAL   =    6.000    mass and valenz                      
   RCORE  =    1.520    outmost cutoff radius                                   
   RWIGS  =    1.550; RWIGS  =    0.820    wigner-seitz radius (au A)           
   ENMAX  =  400.000; ENMIN  =  300.000 eV                                      
   ICORE  =        2    local potential                                         
   LCOR   =        T    correct aug charges                                     
   LPAW   =        T    paw PP                                                  
   EAUG   =  605.392                                                            
   DEXC   =    0.000                                                            
   RMAX   =    1.553    core radius for proj-oper                               
   RAUG   =    1.300    factor for augmentation sphere                          
   RDEP   =    1.550    radius for radial grids                                 
   RDEPT  =    1.329    core radius for aug-charge                              
                                                                                
   Atomic configuration                                                         
    4 entries                                                                   
     n  l   j            E        occ.                                          
     1  0  0.50      -514.6923   2.0000                                         
     2  0  0.50       -23.9615   2.0000                                         
     2  1  0.50        -9.0305   4.0000                                         
     3  2  1.50        -9.5241   0.0000                                         
   Description                                                                  
     l       E           TYP  RCUT    TYP  RCUT                                 
     0    -23.9615318     23  1.200                                             
     0     -9.5240782     23  1.200                                             
     1     -9.0304911     23  1.520                                             
     1      8.1634956     23  1.520                                             
     2     -9.5240782      7  1.500                                             
  local pseudopotential read in
  partial core-charges read in
  partial kinetic energy density read in
  kinetic energy density of atom read in
  atomic valenz-charges read in
  non local Contribution for L=           0  read in
    real space projection operators read in
  non local Contribution for L=           0  read in
    real space projection operators read in
  non local Contribution for L=           1  read in
    real space projection operators read in
  non local Contribution for L=           1  read in
    real space projection operators read in
    PAW grid and wavefunctions read in
 
   number of l-projection  operators is LMAX  =           4
   number of lm-projection operators is LMMAX =           8
 
 POTCAR:    PAW_PBE Si 05Jan2001                  
   VRHFIN =Si: s2p2                                                             
   LEXCH  = PE                                                                  
   EATOM  =   103.0669 eV,    7.5752 Ry                                         
                                                                                
   TITEL  = PAW_PBE Si 05Jan2001                                                
   LULTRA =        F    use ultrasoft PP ?                                      
   IUNSCR =        1    unscreen: 0-lin 1-nonlin 2-no                           
   RPACOR =    1.500    partial core radius                                     
   POMASS =   28.085; ZVAL   =    4.000    mass and valenz                      
   RCORE  =    1.900    outmost cutoff radius                                   
   RWIGS  =    2.480; RWIGS  =    1.312    wigner-seitz radius (au A)           
   ENMAX  =  245.345; ENMIN  =  184.009 eV                                      
   ICORE  =        2    local potential                                         
   LCOR   =        T    correct aug charges                                     
   LPAW   =        T    paw PP                                                  
   EAUG   =  322.069                                                            
   DEXC   =    0.000                                                            
   RMAX   =    1.950    core radius for proj-oper                               
   RAUG   =    1.300    factor for augmentation sphere                          
   RDEP   =    1.993    radius for radial grids                                 
   RDEPT  =    1.837    core radius for aug-charge                              
                                                                                
   Atomic configuration                                                         
    6 entries                                                                   
     n  l   j            E        occ.                                          
     1  0  0.50     -1785.8828   2.0000                                         
     2  0  0.50      -139.4969   2.0000                                         
     2  1  1.50       -95.5546   6.0000                                         
     3  0  0.50       -10.8127   2.0000                                         
     3  1  0.50        -4.0811   2.0000                                         
     3  2  1.50        -4.0817   0.0000                                         
   Description                                                                  
     l       E           TYP  RCUT    TYP  RCUT                                 
     0    -10.8127223     23  1.900                                             
     0     -7.6451159     23  1.900                                             
     1     -4.0811372     23  1.900                                             
     1      2.4879257     23  1.900                                             
     2     -4.0817478      7  1.900                                             
  local pseudopotential read in
  partial core-charges read in
  partial kinetic energy density read in
  atomic valenz-charges read in
  non local Contribution for L=           0  read in
    real space projection operators read in
  non local Contribution for L=           0  read in
    real space projection operators read in
  non local Contribution for L=           1  read in
    real space projection operators read in
  non local Contribution for L=           1  read in
    real space projection operators read in
    PAW grid and wavefunctions read in
 
   number of l-projection  operators is LMAX  =           4
   number of lm-projection operators is LMMAX =           8
 
 Optimization of the real space projectors (new method)

 maximal supplied QI-value         = 19.84
 optimisation between [QCUT,QGAM] = [ 10.12, 20.44] = [ 28.68,116.96] Ry 
 Optimized for a Real-space Cutoff    1.23 Angstroem

   l    n(q)    QCUT    max X(q) W(low)/X(q) W(high)/X(q)  e(spline) 
   0      7    10.119   176.870    0.49E-04    0.18E-03    0.39E-07
   0      7    10.119   105.762    0.46E-04    0.18E-03    0.38E-07
   1      7    10.119    55.370    0.30E-03    0.37E-03    0.12E-06
   1      7    10.119    20.208    0.27E-03    0.35E-03    0.11E-06
 Optimization of the real space projectors (new method)

 maximal supplied QI-value         = 25.13
 optimisation between [QCUT,QGAM] = [ 10.05, 20.36] = [ 28.30,116.06] Ry 
 Optimized for a Real-space Cutoff    1.30 Angstroem

   l    n(q)    QCUT    max X(q) W(low)/X(q) W(high)/X(q)  e(spline) 
   0      8    10.053   115.676    0.49E-03    0.72E-03    0.18E-06
   0      8    10.053    87.132    0.49E-03    0.71E-03    0.18E-06
   1      7    10.053     4.429    0.32E-03    0.31E-03    0.18E-06
   1      7    10.053     2.733    0.23E-03    0.19E-03    0.20E-06
 Optimization of the real space projectors (new method)

 maximal supplied QI-value         = 34.20
 optimisation between [QCUT,QGAM] = [  9.92, 20.18] = [ 27.55,114.04] Ry 
 Optimized for a Real-space Cutoff    1.26 Angstroem

   l    n(q)    QCUT    max X(q) W(low)/X(q) W(high)/X(q)  e(spline) 
   0      8     9.919    19.460    0.50E-03    0.23E-03    0.29E-06
   0      8     9.919    12.209    0.48E-03    0.23E-03    0.28E-06
   1      7     9.919     4.655    0.17E-03    0.75E-03    0.30E-06
 Optimization of the real space projectors (new method)

 maximal supplied QI-value         = 24.76
 optimisation between [QCUT,QGAM] = [ 10.15, 20.30] = [ 28.85,115.39] Ry 
 Optimized for a Real-space Cutoff    1.38 Angstroem

   l    n(q)    QCUT    max X(q) W(low)/X(q) W(high)/X(q)  e(spline) 
   0      8    10.150    20.381    0.22E-03    0.32E-03    0.29E-06
   0      8    10.150    15.268    0.23E-03    0.35E-03    0.30E-06
   1      8    10.150     5.964    0.46E-03    0.53E-03    0.21E-06
   1      8    10.150     5.382    0.38E-03    0.45E-03    0.19E-06
 Optimization of the real space projectors (new method)

 maximal supplied QI-value         = 19.84
 optimisation between [QCUT,QGAM] = [ 10.12, 20.44] = [ 28.68,116.96] Ry 
 Optimized for a Real-space Cutoff    1.23 Angstroem

   l    n(q)    QCUT    max X(q) W(low)/X(q) W(high)/X(q)  e(spline) 
   0      7    10.119   159.560    0.56E-04    0.22E-03    0.45E-07
   0      7    10.119   115.863    0.56E-04    0.21E-03    0.45E-07
   1      7    10.119    88.339    0.34E-03    0.49E-03    0.11E-06
   1      7    10.119    48.592    0.33E-03    0.48E-03    0.11E-06
  PAW_PBE Al 04Jan2001                  :
 energy of atom  1       EATOM=  -53.5387
 kinetic energy error for atom=    0.0005 (will be added to EATOM!!)
  PAW_PBE C 08Apr2002                   :
 energy of atom  2       EATOM= -147.1560
 kinetic energy error for atom=    0.0288 (will be added to EATOM!!)
  PAW_PBE H 15Jun2001                   :
 energy of atom  3       EATOM=  -12.4884
 kinetic energy error for atom=    0.0098 (will be added to EATOM!!)
  PAW_PBE O 08Apr2002                   :
 energy of atom  4       EATOM= -432.3788
 kinetic energy error for atom=    0.1156 (will be added to EATOM!!)
  PAW_PBE Si 05Jan2001                  :
 energy of atom  5       EATOM= -103.0669
 kinetic energy error for atom=    0.0012 (will be added to EATOM!!)
 
 
 POSCAR: Al  C  H  O Si                          
  positions in cartesian coordinates
  No initial velocities read in
 exchange correlation table for  LEXCH =        8
   RHO(1)=    0.500       N(1)  =     2000
   RHO(2)=  100.500       N(2)  =     4000
 


--------------------------------------------------------------------------------------------------------


 ion  position               nearest neighbor table
   1  0.562  0.670  0.557-  43 1.70  72 1.70  67 1.71  44 1.92  98 3.20  95 3.20 110 3.21 103 3.22

   2  0.731  0.667  0.672-   3 1.09   5 1.09   4 1.10  44 1.48
   3  0.762  0.683  0.602-   2 1.09
   4  0.715  0.584  0.694-   2 1.10
   5  0.792  0.733  0.716-   2 1.09
   6  0.017  0.333  0.833- 104 1.62  88 1.62
   7  0.208  0.422  0.534-  82 1.62  95 1.63
   8  0.547  0.096  0.201- 106 1.62 111 1.62
   9  0.874  0.759  0.866- 105 1.62  79 1.63
  10  0.452  0.545  0.786- 103 1.61  83 1.64
  11  0.122  0.878  0.131-  84 1.62  86 1.62
  12  0.088  0.546  0.799-  94 1.62  88 1.62
  13  0.412  0.209  0.457- 112 1.62  99 1.62
  14  0.763  0.882  0.139-  97 1.62  81 1.62
  15  0.214  0.786  0.539- 100 1.62  92 1.62
  16  0.900  0.100  0.125-  81 1.63  90 1.63
  17  0.238  0.120  0.863- 101 1.62 107 1.62
  18  0.874  0.441  0.448-  93 1.62  91 1.62
  19  0.434  0.870  0.543-  92 1.62 110 1.64
  20  0.983  0.317  0.165-  90 1.62  80 1.62
  21  0.649  0.012  0.504-  89 1.61 110 1.62
  22  0.004  0.655  0.495- 100 1.62  93 1.62
  23  0.333  0.314  0.164-  87 1.62 108 1.62
  24  0.986  0.664  0.161-  84 1.62  96 1.62
  25  0.358  0.362  0.499-  99 1.62  95 1.63
  26  0.684  0.018  0.170-  81 1.62 106 1.62
  27  0.658  0.974  0.840- 109 1.62  78 1.62
  28  0.996  0.349  0.502-  91 1.62  82 1.62
  29  0.781  0.223  0.465-  91 1.61  89 1.62
  30  0.335  0.019  0.162-  86 1.62 111 1.62
  31  0.911  0.454  0.206-  96 1.61  80 1.62
  32  0.313  0.337  0.838-  83 1.62 107 1.62
  33  0.445  0.895  0.803-  78 1.62  85 1.63
  34  0.064  0.661  0.664-  94 1.63 100 1.64
  35  0.665  0.077  0.335- 106 1.62  89 1.63
  36  0.996  0.742  0.998-  79 1.62  84 1.63
  37  0.593  0.947  0.671-  78 1.62 110 1.65
  38  0.923  0.603  0.328-  96 1.63  93 1.63
  39  0.254  0.253  1.000- 107 1.62  87 1.63
  40  0.408  0.345  0.330- 108 1.63  99 1.63
  41  0.787  0.572  0.467-  93 1.62  98 1.63
  42  0.738  0.996  0.004- 109 1.63  81 1.63
  43  0.586  0.804  0.547- 110 1.59   1 1.70
  44  0.624  0.668  0.672-   2 1.48 103 1.71   1 1.92
  45  0.255  0.002  0.998- 101 1.62  86 1.63
  46  0.070  0.406  0.667-  88 1.62  82 1.63
  47  0.399  0.063  0.332- 111 1.63 112 1.63
  48  0.316  0.387  0.668-  83 1.62  95 1.65
  49  0.745  0.745  0.006- 105 1.61  97 1.63
  50  0.548  0.449  0.192- 102 1.62 108 1.62
  51  0.874  0.120  0.870- 109 1.62 104 1.63
  52  0.336  0.931  0.668-  85 1.63  92 1.63
  53  0.570  0.423  0.454-  99 1.63  98 1.64
  54  0.670  0.579  0.328- 102 1.61  98 1.62
  55  0.929  0.327  0.333-  80 1.63  91 1.63
  56  0.347  0.000  0.501- 112 1.62  92 1.62
  57  0.312  0.980  0.834- 101 1.62  85 1.62
  58  0.903  0.801  0.130-  97 1.63  84 1.63
  59  0.227  0.764  0.787-  94 1.63  85 1.63
  60  0.119  0.239  0.133-  90 1.62  87 1.62
  61  0.562  0.141  0.454- 112 1.63  89 1.63
  62  0.233  0.471  0.790-  83 1.63  88 1.64
  63  0.196  0.097  0.127-  86 1.63  87 1.63
  64  0.000  0.260  1.000- 104 1.63  90 1.63
  65  0.095  0.901  0.873-  79 1.63 101 1.64
  66  0.801  0.902  0.877- 105 1.63 109 1.64
  67  0.423  0.568  0.566-  95 1.60   1 1.71
  68  0.534  0.766  0.772- 103 1.61  78 1.65
  69  0.768  0.530  0.196-  96 1.63 102 1.63
  70  0.132  0.566  0.542- 100 1.63  82 1.63
  71  0.464  0.232  0.214- 111 1.63 108 1.63
  72  0.641  0.641  0.487-  98 1.59   1 1.70
  73  0.767  0.235  0.209-  80 1.63 106 1.63
  74  0.656  0.684  0.847- 103 1.61 105 1.63
  75  0.012  0.684  0.831-  79 1.62  94 1.63
  76  0.094  0.195  0.874- 104 1.63 107 1.63
  77  0.685  0.666  0.168-  97 1.62 102 1.62
  78  0.558  0.896  0.771-  37 1.62  27 1.62  33 1.62  68 1.65 110 3.06  85 3.11 109 3.14
  79  0.996  0.772  0.893-  75 1.62  36 1.62  65 1.63   9 1.63  94 3.10 105 3.11 101 3.14
  80  0.896  0.333  0.229-  31 1.62  20 1.62  55 1.63  73 1.63  90 3.08  91 3.09 106 3.13
  81  0.771  1.000  0.110-  26 1.62  14 1.62  16 1.63  42 1.63 106 3.10  97 3.12  90 3.14 109 3.15

  82  0.103  0.437  0.561-   7 1.62  28 1.62  46 1.63  70 1.63  91 3.09  95 3.10  88 3.13 100 3.14

  83  0.327  0.435  0.769-  32 1.62  48 1.62  62 1.63  10 1.64  95 3.04 107 3.10  88 3.11
  84  0.001  0.772  0.104-  11 1.62  24 1.62  36 1.63  58 1.63  96 3.06  86 3.12  97 3.13
  85  0.330  0.892  0.772-  57 1.62  52 1.63  33 1.63  59 1.63 101 3.10  78 3.11  92 3.12
  86  0.227  1.000  0.104-  11 1.62  30 1.62  45 1.63  63 1.63 111 3.10  87 3.11  84 3.12
  87  0.225  0.225  0.106-  23 1.62  60 1.62  39 1.63  63 1.63 108 3.10  86 3.11  90 3.11
  88  0.103  0.439  0.772-  46 1.62  12 1.62   6 1.62  62 1.64  83 3.11 104 3.12  94 3.12  82 3.13

  89  0.663  0.113  0.439-  21 1.61  29 1.62  35 1.63  61 1.63 110 3.10  91 3.12 106 3.13 112 3.13

  90  0.000  0.229  0.105-  20 1.62  60 1.62  64 1.63  16 1.63  80 3.08  87 3.11  81 3.14 104 3.14

  91  0.895  0.335  0.436-  29 1.61  28 1.62  18 1.62  55 1.63  82 3.09  80 3.09  89 3.12
  92  0.334  0.897  0.563-  15 1.62  19 1.62  56 1.62  52 1.63 112 3.10 110 3.12  85 3.12
  93  0.897  0.567  0.434-  41 1.62  18 1.62  22 1.62  38 1.63  98 3.09 100 3.09  96 3.12
  94  0.098  0.664  0.769-  12 1.62  59 1.63  75 1.63  34 1.63  79 3.10 100 3.12  88 3.12
  95  0.329  0.438  0.565-  67 1.60  25 1.63   7 1.63  48 1.65  83 3.04  82 3.10   1 3.20
  96  0.896  0.562  0.224-  31 1.61  24 1.62  38 1.63  69 1.63  84 3.06 102 3.09  93 3.12
  97  0.775  0.774  0.111-  77 1.62  14 1.62  49 1.63  58 1.63 102 3.07  81 3.12  84 3.13 105 3.14

  98  0.666  0.554  0.434-  72 1.59  54 1.62  41 1.63  53 1.64  99 3.07  93 3.09   1 3.20
  99  0.437  0.335  0.436-  25 1.62  13 1.62  53 1.63  40 1.63  98 3.07 108 3.12 112 3.14
 100  0.104  0.666  0.560-  15 1.62  22 1.62  70 1.63  34 1.64  93 3.09  94 3.12  82 3.14
 101  0.225  0.000  0.892-  57 1.62  17 1.62  45 1.62  65 1.64  85 3.10 107 3.10  79 3.14
 102  0.667  0.555  0.222-  54 1.61  50 1.62  77 1.62  69 1.63  97 3.07  96 3.09 108 3.09
 103  0.563  0.666  0.773-  10 1.61  68 1.61  74 1.61  44 1.71 105 3.11   1 3.22
 104  0.997  0.227  0.894-   6 1.62  64 1.63  51 1.63  76 1.63  88 3.12 107 3.12 109 3.13  90 3.14

 105  0.770  0.774  0.900-  49 1.61   9 1.62  66 1.63  74 1.63 109 3.11 103 3.11  79 3.11  97 3.14

 106  0.666  0.107  0.229-   8 1.62  35 1.62  26 1.62  73 1.63  81 3.10 111 3.13  89 3.13  80 3.13

 107  0.224  0.226  0.894-  32 1.62  39 1.62  17 1.62  76 1.63  83 3.10 101 3.10 104 3.12
 108  0.438  0.335  0.226-  23 1.62  50 1.62  40 1.63  71 1.63 102 3.09  87 3.10  99 3.12
 109  0.768  0.999  0.898-  27 1.62  51 1.62  42 1.63  66 1.64 105 3.11 104 3.13  78 3.14  81 3.15

 110  0.565  0.906  0.565-  43 1.59  21 1.62  19 1.64  37 1.65  78 3.06  89 3.10  92 3.12   1 3.21

 111  0.436  0.103  0.228-   8 1.62  30 1.62  71 1.63  47 1.63  86 3.10 112 3.10 106 3.13
 112  0.431  0.103  0.436-  13 1.62  56 1.62  61 1.63  47 1.63 111 3.10  92 3.10  89 3.13  99 3.14

 
  LATTYP: Found a triclinic cell.
 ALAT       =    13.7322043366
 B/A-ratio  =     0.9994204432
 C/A-ratio  =     1.0843400083
 COS(alpha) =     0.0000550690
 COS(beta)  =     0.0002592819
 COS(gamma) =     0.4999019569
  
  Lattice vectors:
  
 A1 = (   6.8687391400, -11.8909148200,  -0.0018197300)
 A2 = (  -6.8608326700, -11.8862902600,  -0.0004082900)
 A3 = (   0.0015106500,  -0.0013072700, -14.8903784300)


Analysis of symmetry for initial positions (statically):
=====================================================================
 Subroutine PRICEL returns:
 Original cell was already a primitive cell.
 

 Routine SETGRP: Setting up the symmetry group for a 
 triclinic supercell.


 Subroutine GETGRP returns: Found  1 space group operations
 (whereof  1 operations were pure point group operations)
 out of a pool of  2 trial point group operations.


The static configuration has the point symmetry C_1 .


Analysis of symmetry for dynamics (positions and initial velocities):
=====================================================================
 Subroutine PRICEL returns:
 Original cell was already a primitive cell.
 

 Routine SETGRP: Setting up the symmetry group for a 
 triclinic supercell.


 Subroutine GETGRP returns: Found  1 space group operations
 (whereof  1 operations were pure point group operations)
 out of a pool of  2 trial point group operations.


The dynamic configuration has the point symmetry C_1 .


 Subroutine INISYM returns: Found  1 space group operations
 (whereof  1 operations are pure point group operations),
 and found     1 'primitive' translations

 
 
 KPOINTS: KPOINTS created by Atomic Simulation Env

Automatic generation of k-mesh.
Space group operators:
 irot       det(A)        alpha          n_x          n_y          n_z        tau_x        tau_y        tau_z
    1     1.000000     0.000000     1.000000     0.000000     0.000000     0.000000     0.000000     0.000000
 
 Subroutine IBZKPT returns following result:
 ===========================================
 
 Found      1 irreducible k-points:
 
 Following reciprocal coordinates:
            Coordinates               Weight
  0.000000  0.000000  0.000000      1.000000
 
 Following cartesian coordinates:
            Coordinates               Weight
  0.000000  0.000000  0.000000      1.000000
 


--------------------------------------------------------------------------------------------------------




 Dimension of arrays:
   k-points           NKPTS =      1   k-points in BZ     NKDIM =      1   number of bands    NBANDS=    352
   number of dos      NEDOS =    301   number of ions     NIONS =    112
   non local maximal  LDIM  =      4   non local SUM 2l+1 LMDIM =      8
   total plane-waves  NPLWV = 392000
   max r-space proj   IRMAX =   1827   max aug-charges    IRDMAX=   6476
   dimension x,y,z NGX =    70 NGY =   70 NGZ =   80
   dimension x,y,z NGXF=   140 NGYF=  140 NGZF=  160
   support grid    NGXF=   140 NGYF=  140 NGZF=  160
   ions per type =               1   1   3  72  35
 NGX,Y,Z   is equivalent  to a cutoff of   8.48,  8.47,  8.93 a.u.
 NGXF,Y,Z  is equivalent  to a cutoff of  16.95, 16.95, 17.86 a.u.


 I would recommend the setting:
   dimension x,y,z NGX =    67 NGY =   67 NGZ =   73
 SYSTEM =  unknown system                          
 POSCAR =  Al  C  H  O Si                          

 Startparameter for this run:
   NWRITE =      2    write-flag & timer
   PREC   = normal    normal or accurate (medium, high low for compatibility)
   ISTART =      0    job   : 0-new  1-cont  2-samecut
   ICHARG =      2    charge: 1-file 2-atom 10-const
   ISPIN  =      1    spin polarized calculation?
   LNONCOLLINEAR =      F non collinear calculations
   LSORBIT =      F    spin-orbit coupling
   INIWAV =      1    electr: 0-lowe 1-rand  2-diag
   LASPH  =      F    aspherical Exc in radial PAW
   METAGGA=      F    non-selfconsistent MetaGGA calc.

 Electronic Relaxation 1
   ENCUT  =  400.0 eV  29.40 Ry    5.42 a.u.  22.39 22.39 24.28*2*pi/ulx,y,z
   ENINI  =  400.0     initial cutoff
   ENAUG  =  644.9 eV  augmentation charge cutoff
   NELM   =     60;   NELMIN=  2; NELMDL= -5     # of ELM steps 
   EDIFF  = 0.1E-05   stopping-criterion for ELM
   LREAL  =      T    real-space projection
   NLSPLINE    = F    spline interpolate recip. space projectors
   LCOMPAT=      F    compatible to vasp.4.4
   GGA_COMPAT  = T    GGA compatible to vasp.4.4-vasp.4.6
   LMAXPAW     = -100 max onsite density
   LMAXMIX     =    2 max onsite mixed and CHGCAR
   VOSKOWN=      0    Vosko Wilk Nusair interpolation
   ROPT   =   -0.00050  -0.00050  -0.00050  -0.00050
   ROPT   =   -0.00050
 Ionic relaxation
   EDIFFG = 0.1E-04   stopping-criterion for IOM
   NSW    =      0    number of steps for IOM
   NBLOCK =      1;   KBLOCK =      1    inner block; outer block 
   IBRION =     -1    ionic relax: 0-MD 1-quasi-New 2-CG
   NFREE  =      0    steps in history (QN), initial steepest desc. (CG)
   ISIF   =      2    stress and relaxation
   IWAVPR =     10    prediction:  0-non 1-charg 2-wave 3-comb
   ISYM   =      2    0-nonsym 1-usesym 2-fastsym
   LCORR  =      T    Harris-Foulkes like correction to forces

   POTIM  = 0.5000    time-step for ionic-motion
   TEIN   =    0.0    initial temperature
   TEBEG  =    0.0;   TEEND  =   0.0 temperature during run
   SMASS  =  -3.00    Nose mass-parameter (am)
   estimated Nose-frequenzy (Omega)   =  0.10E-29 period in steps =****** mass=  -0.431E-26a.u.
   SCALEE = 1.0000    scale energy and forces
   NPACO  =    256;   APACO  = 16.0  distance and # of slots for P.C.
   PSTRESS=    0.0 pullay stress

  Mass of Ions in am
   POMASS =  26.98 12.01  1.00 16.00 28.09
  Ionic Valenz
   ZVAL   =   3.00  4.00  1.00  6.00  4.00
  Atomic Wigner-Seitz radii
   RWIGS  =  -1.00 -1.00 -1.00 -1.00 -1.00
  virtual crystal weights 
   VCA    =   1.00  1.00  1.00  1.00  1.00
   NELECT =     582.0000    total number of electrons
   NUPDOWN=      -1.0000    fix difference up-down

 DOS related values:
   EMIN   =  10.00;   EMAX   =-10.00  energy-range for DOS
   EFERMI =   0.00
   ISMEAR =     0;   SIGMA  =   0.01  broadening in eV -4-tet -1-fermi 0-gaus

 Electronic relaxation 2 (details)
   IALGO  =     38    algorithm
   LDIAG  =      T    sub-space diagonalisation (order eigenvalues)
   LSUBROT=      F    optimize rotation matrix (better conditioning)
   TURBO    =      0    0=normal 1=particle mesh
   IRESTART =      0    0=no restart 2=restart with 2 vectors
   NREBOOT  =      0    no. of reboots
   NMIN     =      0    reboot dimension
   EREF     =   0.00    reference energy to select bands
   IMIX   =      4    mixing-type and parameters
     AMIX     =   0.40;   BMIX     =  1.00
     AMIX_MAG =   1.60;   BMIX_MAG =  1.00
     AMIN     =   0.10
     WC   =   100.;   INIMIX=   1;  MIXPRE=   1;  MAXMIX= -45

 Intra band minimization:
   WEIMIN = 0.0000     energy-eigenvalue tresh-hold
   EBREAK =  0.71E-09  absolut break condition
   DEPER  =   0.30     relativ break condition  

   TIME   =   0.40     timestep for ELM

  volume/ion in A,a.u.               =      21.70       146.44
  Fermi-wavevector in a.u.,A,eV,Ry     =   1.016603  1.921101 14.061368  1.033481
  Thomas-Fermi vector in A             =   2.149956
 
 Write flags
   LWAVE  =      F    write WAVECAR
   LCHARG =      F    write CHGCAR
   LVTOT  =      F    write LOCPOT, total local potential
   LVHAR  =      F    write LOCPOT, Hartree potential only
   LELF   =      F    write electronic localiz. function (ELF)
   LORBIT =      0    0 simple, 1 ext, 2 COOP (PROOUT)


 Dipole corrections
   LMONO  =      F    monopole corrections only (constant potential shift)
   LDIPOL =      F    correct potential (dipole corrections)
   IDIPOL =      0    1-x, 2-y, 3-z, 4-all directions 
   EPSILON=  1.0000000 bulk dielectric constant

 Exchange correlation treatment:
   GGA     =    --    GGA type
   LEXCH   =     8    internal setting for exchange type
   VOSKOWN=      0    Vosko Wilk Nusair interpolation
   LHFCALC =     F    Hartree Fock is set to
   LHFONE  =     F    Hartree Fock one center treatment
   AEXX    =    0.0000 exact exchange contribution

 Linear response parameters
   LEPSILON=     F    determine dielectric tensor
   LRPA    =     F    only Hartree local field effects (RPA)
   LNABLA  =     F    use nabla operator in PAW spheres
   LVEL    =     F    velocity operator in full k-point grid
   LINTERFAST=   F  fast interpolation
   KINTER  =     0    interpolate to denser k-point grid
   CSHIFT  =0.1000    complex shift for real part using Kramers Kronig
   OMEGAMAX=  -1.0    maximum frequency
   DEG_THRESHOLD= 0.2000000E-02 threshold for treating states as degnerate
   RTIME   =    0.100 relaxation time in fs

 Orbital magnetization related:
   ORBITALMAG=     F  switch on orbital magnetization
   LCHIMAG   =     F  perturbation theory with respect to B field
   DQ        =  0.001000  dq finite difference perturbation B field



--------------------------------------------------------------------------------------------------------


 Static calculation
 charge density and potential will be updated during run
 non-spin polarized calculation
 Variant of blocked Davidson
 Davidson routine will perform the subspace rotation
 perform sub-space diagonalisation
    after iterative eigenvector-optimisation
 modified Broyden-mixing scheme, WC =      100.0
 initial mixing is a Kerker type mixing with AMIX =  0.4000 and BMIX =      1.0000
 Hartree-type preconditioning will be used
 using additional bands           61
 real space projection scheme for non local part
 use partial core corrections
 calculate Harris-corrections to forces 
   (improved forces if not selfconsistent)
 use gradient corrections 
 use of overlap-Matrix (Vanderbilt PP)
 Gauss-broadening in eV      SIGMA  =   0.01


--------------------------------------------------------------------------------------------------------


  energy-cutoff  :      400.00
  volume of cell :     2430.49
      direct lattice vectors                 reciprocal lattice vectors
    13.729571810 -0.004624560 -0.001411440     0.072849658  0.042081312  0.000003696
    -6.868739140 11.890914820  0.001819730     0.000028332  0.084114186 -0.000007382
    -0.001510650  0.001307270 14.890378430     0.000006902 -0.000006291  0.067157462

  length of vectors
    13.729572661 13.732204337 14.890378564     0.084130313  0.084114191  0.067157462


 
 k-points in units of 2pi/SCALE and weight: KPOINTS created by Atomic Simulation Env
   0.00000000  0.00000000  0.00000000       1.000
 
 k-points in reciprocal lattice and weights: KPOINTS created by Atomic Simulation Env
   0.00000000  0.00000000  0.00000000       1.000
 
 position of ions in fractional coordinates (direct lattice) 
   0.56155782  0.67035205  0.55715617
   0.73104136  0.66683056  0.67155657
   0.76159004  0.68256838  0.60242306
   0.71492882  0.58393959  0.69382929
   0.79153383  0.73267691  0.71597405
   0.01679885  0.33281592  0.83334605
   0.20802706  0.42174946  0.53359988
   0.54718672  0.09623139  0.20072217
   0.87448251  0.75901002  0.86630820
   0.45182211  0.54490489  0.78586778
   0.12157682  0.87845851  0.13090164
   0.08830954  0.54565607  0.79899439
   0.41171229  0.20857842  0.45729754
   0.76320715  0.88201729  0.13928476
   0.21434409  0.78626177  0.53890938
   0.90026227  0.10031218  0.12532608
   0.23753347  0.12011585  0.86259602
   0.87383563  0.44050317  0.44785139
   0.43424495  0.87011505  0.54344274
   0.98301338  0.31728334  0.16487751
   0.64866916  0.01245605  0.50355169
   0.00390670  0.65450727  0.49454420
   0.33268691  0.31430189  0.16399631
   0.98563503  0.66420365  0.16109511
   0.35758168  0.36156233  0.49867030
   0.68420105  0.01816338  0.17026772
   0.65840256  0.97396590  0.84017565
   0.99561050  0.34910385  0.50168603
   0.78096208  0.22304434  0.46530984
   0.33531135  0.01874108  0.16170027
   0.91054451  0.45433177  0.20635896
   0.31286043  0.33722746  0.83845312
   0.44476230  0.89526215  0.80307563
   0.06385546  0.66113708  0.66430571
   0.66491196  0.07740675  0.33501566
   0.99643454  0.74227091  0.99799064
   0.59303452  0.94746381  0.67060404
   0.92261588  0.60295157  0.32845732
   0.25376676  0.25273233  0.99968567
   0.40849809  0.34470914  0.33045642
   0.78730066  0.57215689  0.46748818
   0.73766967  0.99612619  0.00419470
   0.58581988  0.80392551  0.54711632
   0.62378394  0.66810782  0.67241661
   0.25541043  0.00229760  0.99774779
   0.07036440  0.40649769  0.66688867
   0.39920638  0.06341525  0.33151281
   0.31558833  0.38718367  0.66779287
   0.74479833  0.74549229  0.00562281
   0.54752391  0.44938914  0.19189774
   0.87416383  0.11973657  0.86992433
   0.33558683  0.93072556  0.66814245
   0.57042081  0.42277110  0.45438726
   0.67009440  0.57920091  0.32764483
   0.92881083  0.32669092  0.33302316
   0.34720319  0.00010514  0.50087260
   0.31247917  0.97961447  0.83429120
   0.90297909  0.80126932  0.12956964
   0.22665988  0.76440932  0.78678871
   0.11875690  0.23880729  0.13346981
   0.56175781  0.14082198  0.45445962
   0.23311364  0.47145922  0.78987504
   0.19558110  0.09673889  0.12705107
   0.00028145  0.25951751  0.99978236
   0.09516114  0.90108856  0.87269756
   0.80089598  0.90190431  0.87732571
   0.42273489  0.56835052  0.56623008
   0.53373780  0.76592380  0.77219443
   0.76807250  0.52959412  0.19627131
   0.13188283  0.56587327  0.54172868
   0.46420308  0.23196137  0.21445772
   0.64120081  0.64056667  0.48688627
   0.76678812  0.23542189  0.20880317
   0.65642794  0.68389514  0.84711807
   0.01152749  0.68381992  0.83074174
   0.09440155  0.19479628  0.87404558
   0.68459433  0.66616880  0.16827784
   0.55814586  0.89628655  0.77087074
   0.99593314  0.77229644  0.89259187
   0.89638609  0.33279368  0.22887948
   0.77144923  0.99962804  0.10962987
   0.10258551  0.43686755  0.56122819
   0.32732660  0.43487770  0.76926993
   0.00105661  0.77165959  0.10449645
   0.32982714  0.89245733  0.77219301
   0.22719558  0.99974466  0.10406795
   0.22530907  0.22523851  0.10576885
   0.10272535  0.43903936  0.77175513
   0.66296609  0.11292802  0.43916084
   0.00012612  0.22853072  0.10533152
   0.89530840  0.33528107  0.43649051
   0.33362221  0.89678640  0.56284353
   0.89713206  0.56748308  0.43393458
   0.09818829  0.66400319  0.76948229
   0.32878160  0.43759075  0.56528419
   0.89588066  0.56229431  0.22413687
   0.77473113  0.77421754  0.11147619
   0.66580454  0.55415374  0.43449911
   0.43733030  0.33513414  0.43551624
   0.10385560  0.66629380  0.56005175
   0.22466758  0.00043264  0.89217074
   0.66744784  0.55541548  0.22154753
   0.56273514  0.66571140  0.77323550
   0.99672511  0.22663299  0.89443235
   0.77031113  0.77391805  0.90038546
   0.66615983  0.10730782  0.22934632
   0.22396011  0.22604275  0.89381281
   0.43804426  0.33453631  0.22627932
   0.76814753  0.99894832  0.89842073
   0.56498091  0.90592597  0.56543198
   0.43637463  0.10294573  0.22796033
   0.43051489  0.10343928  0.43597092
 
 position of ions in cartesian coordinates  (Angst):
   3.10463338  7.96923052  8.29669347
   5.45558519  7.92672255  9.99991310
   5.76701095  8.11362798  8.97047449
   5.80368972  6.94117672 10.33143423
   5.83377240  8.70947420 10.66134062
  -2.05664361  3.95849748 12.40941997
  -0.04157065  5.01472243  7.94597800
   6.85134783  1.14201116  2.98823186
   6.79151990  9.02241190 12.89980385
   2.45932739  6.47835549 11.70222250
  -4.36490242 10.44528420  1.95060192
  -2.53672403  6.48898596 11.89819713
   4.21927188  2.47888205  6.80913187
   4.41995028 10.48464505  2.07453060
  -2.45858852  9.34908499  8.02569286
  11.67100796  1.18880411  1.86506463
   2.43488531  1.42831650 12.84426448
   8.97101112  5.23453003  6.66824491
  -0.01541703 10.34516618  8.09303852
  11.31676722  3.76845870  2.45427842
   8.81963176  0.14577230  7.49718233
  -4.44274947  7.78331863  7.36513580
   2.40854339  3.73601286  2.44206949
   8.96986196  7.89364149  2.39858466
   2.42521271  4.29830511  7.42554272
   9.26877071  0.21303766  2.53441813
   2.34839832 11.57939907 12.51137644
  11.27064470  4.14721572  7.46952487
   9.18953865  2.64919793  6.92794320
   4.47470940  0.22150930  2.40733904
   9.38038809  5.39847928  3.07230459
   1.97784568  4.00959224 12.48505633
  -0.04413940 10.64447897 11.95910142
  -3.66547355  7.86209783  9.89287638
   8.59676364  0.91780010  4.98771233
   8.58064670  8.82297674 14.86040262
   1.63321522 11.26434560  9.98643503
   8.52510775  7.16580845  4.89064879
   1.74664633  3.00535191 14.88579967
   3.24028750  4.09744989  4.92067186
   6.87859831  6.80043906  6.96100586
   3.28575142 11.84144576  0.06323217
   2.52027499  9.55741583  8.14740513
   3.97421228  7.94240748 10.01287313
   3.48938698  0.02744373 14.85648586
  -1.82706095  4.83417581  9.93086507
   5.04484905  0.75265256  4.93590314
   1.67242021  4.60338157  9.94394768
   5.10516159  8.86114831  0.08403113
   4.43024217  5.34136679  2.85747494
  11.17814166  1.42087196 12.95248654
  -1.78645693 11.06649986  9.95011393
   4.92704265  5.02509120  6.76596247
   5.22123427  6.88455811  4.87886370
  10.50771720  3.88079391  4.95812441
   4.76547231  0.00029932  7.45769269
  -2.43977137 11.64815778 12.42425328
   6.89361058  9.52381873  1.92952457
  -2.13977368  9.08950645 11.71665274
  -0.01002522  2.83926243  1.98768293
   6.74473822  1.67249839  6.76653909
  -0.03897316  5.60603596 11.76206716
   2.02057863  1.14957551  1.89173850
  -1.78020421  3.08720629 14.88760954
  -4.88413890 10.71546809 12.99630235
   4.79968810 10.72191044 13.06422263
   1.89926219  6.75699287  8.43181775
   2.06589415  9.10607583 11.49890772
   6.90736619  6.29406315  2.92243371
  -2.07695946  6.72884914  8.06738864
   4.77970341  2.75636651  3.19312352
   4.40279169  7.61459493  7.25018145
   8.91030558  2.79610855  3.10850435
   4.31369753  8.13021058 12.61422663
  -4.53996811  8.13227712 12.37128698
  -0.04323235  2.31701202 13.01509069
   4.82319310  7.91841049  2.50596670
   1.50558064 10.65609358 11.47940025
   8.36768438  9.17987229 13.29103040
  10.02077846  3.95337512  3.40744247
   3.72531774 11.88306758  1.63316045
  -1.59312193  5.19501409  8.35755032
   1.50583048  5.17058559 11.45504973
  -5.28597948  9.17587017  1.55739441
  -1.60283770 10.61161825 11.49940464
  -3.74784446 11.88696396  1.55110975
   1.54613271  2.67738825  1.57503007
  -1.60643762  5.22111347 11.49237988
   8.32590401  1.34032564  6.53854086
  -1.56814545  2.71757644  1.56884188
   9.98858338  3.98322885  6.49885532
  -1.58015202 10.66280363  8.38211418
   8.41869027  6.74431139  6.46121653
  -3.21394394  7.89615722 11.45895221
   1.50747993  5.20257284  8.41762775
   8.43746633  6.68234370  3.33724156
   5.31865996  9.20271776  1.66023804
   5.33421738  6.58688387  6.46992484
   3.70175086  3.98359839  6.48499421
  -3.15155143  7.92309467  8.34044839
   3.08027022  0.00527180 13.28444363
   5.34843432  6.60160113  3.29899521
   3.15234648  7.91432598 11.51418636
  12.12657491  2.69143343 13.31744176
   5.25884061  9.20020831 13.40740131
   8.40867334  1.27320727  3.41430852
   1.52089749  2.68798782 13.30930622
   3.71597565  3.97621281  3.36937520
   3.68346405 11.87603152 13.37855828
   1.53352264 10.77041493  8.42034726
   5.28378509  1.22239887  3.39398700
   5.19962907  1.22856666  6.49135257
 


--------------------------------------------------------------------------------------------------------


 k-point  1 :   0.0000 0.0000 0.0000  plane waves:   44137

 maximum and minimum number of plane-waves per node :      7363     7350

 maximum number of plane-waves:     44137
 maximum index in each direction: 
   IXMAX=   22   IYMAX=   22   IZMAX=   24
   IXMIN=  -22   IYMIN=  -22   IZMIN=  -24

 WARNING: aliasing errors must be expected set NGX to  90 to avoid them
 WARNING: aliasing errors must be expected set NGY to  90 to avoid them
 WARNING: aliasing errors must be expected set NGZ to  98 to avoid them
 aliasing errors are usually negligible using standard VASP settings
 and one can safely disregard these warnings

 real space projection operators:
  total allocation   :      10723.27 KBytes
  max/ min on nodes  :       1846.70       1698.21


 parallel 3D FFT for wavefunctions:
    minimum data exchange during FFTs selected (reduces bandwidth)
 parallel 3D FFT for charge:
    minimum data exchange during FFTs selected (reduces bandwidth)


 total amount of memory used by VASP on root node    53519. kBytes
========================================================================

   base      :      30000. kBytes
   nonlr-proj:       5693. kBytes
   fftplans  :       4343. kBytes
   grid      :       8131. kBytes
   one-center:         58. kBytes
   wavefun   :       5294. kBytes
 
     INWAV:  cpu time    0.0000: real time    0.0001
 Broyden mixing: mesh for mixing (old mesh)
   NGX = 45   NGY = 45   NGZ = 49
  (NGX  =140   NGY  =140   NGZ  =160)
  gives a total of  99225 points

 initial charge density was supplied:
 charge density of overlapping atoms calculated
 number of electron     582.0000000 magnetization 
 keeping initial charge density in first step


--------------------------------------------------------------------------------------------------------


 Maximum index for non-local projection operator          356
 Maximum index for augmentation-charges          339 (set IRDMAX)


--------------------------------------------------------------------------------------------------------


 First call to EWALD:  gamma=   0.132
 Maximum number of real-space cells 3x 3x 3
 Maximum number of reciprocal cells 3x 3x 3

 FEWALD executed in parallel
    FEWALD:  cpu time    0.0131: real time    0.0131


----------------------------------------- Iteration    1(   1)  ---------------------------------------


    POTLOK:  cpu time    0.0967: real time    0.0994
    SETDIJ:  cpu time    0.0056: real time    0.0057
     EDDAV:  cpu time    2.2646: real time    2.2790
       DOS:  cpu time    0.0004: real time    0.0004
    --------------------------------------------
      LOOP:  cpu time    2.3702: real time    2.3952

 eigenvalue-minimisations  :   744
 total energy-change (2. order) : 0.4499799E+04  (-0.2441467E+05)
 number of electron     582.0000000 magnetization 
 augmentation part      582.0000000 magnetization 

 Free energy of the ion-electron system (eV)
  ---------------------------------------------------
  alpha Z        PSCENC =       476.21782361
  Ewald energy   TEWEN  =     -2542.69435394
  -Hartree energ DENC   =    -28632.48682138
  -exchange      EXHF   =         0.00000000
  -V(xc)+E(xc)   XCENC  =      1690.15760116
  PAW double counting   =     28217.01960844   -27699.40053531
  entropy T*S    EENTRO =        -0.00000000
  eigenvalues    EBANDS =     -1977.36689488
  atomic energy  EATOM  =     34968.35250874
  Solvation  Ediel_sol  =         0.00000000
  ---------------------------------------------------
  free energy    TOTEN  =      4499.79893646 eV

  energy without entropy =     4499.79893646  energy(sigma->0) =     4499.79893646


--------------------------------------------------------------------------------------------------------




----------------------------------------- Iteration    1(   2)  ---------------------------------------


     EDDAV:  cpu time    2.4870: real time    2.5035
       DOS:  cpu time    0.0002: real time    0.0002
    --------------------------------------------
      LOOP:  cpu time    2.4939: real time    2.5156

 eigenvalue-minimisations  :   880
 total energy-change (2. order) :-0.4903213E+04  (-0.4798677E+04)
 number of electron     582.0000000 magnetization 
 augmentation part      582.0000000 magnetization 

 Free energy of the ion-electron system (eV)
  ---------------------------------------------------
  alpha Z        PSCENC =       476.21782361
  Ewald energy   TEWEN  =     -2542.69435394
  -Hartree energ DENC   =    -28632.48682138
  -exchange      EXHF   =         0.00000000
  -V(xc)+E(xc)   XCENC  =      1690.15760116
  PAW double counting   =     28217.01960844   -27699.40053531
  entropy T*S    EENTRO =        -0.00000000
  eigenvalues    EBANDS =     -6880.58002840
  atomic energy  EATOM  =     34968.35250874
  Solvation  Ediel_sol  =         0.00000000
  ---------------------------------------------------
  free energy    TOTEN  =      -403.41419706 eV

  energy without entropy =     -403.41419706  energy(sigma->0) =     -403.41419706


--------------------------------------------------------------------------------------------------------




----------------------------------------- Iteration    1(   3)  ---------------------------------------


     EDDAV:  cpu time    2.2804: real time    2.2921
       DOS:  cpu time    0.0004: real time    0.0004
    --------------------------------------------
      LOOP:  cpu time    2.2893: real time    2.3025

 eigenvalue-minimisations  :   816
 total energy-change (2. order) :-0.5723427E+03  (-0.5702200E+03)
 number of electron     582.0000000 magnetization 
 augmentation part      582.0000000 magnetization 

 Free energy of the ion-electron system (eV)
  ---------------------------------------------------
  alpha Z        PSCENC =       476.21782361
  Ewald energy   TEWEN  =     -2542.69435394
  -Hartree energ DENC   =    -28632.48682138
  -exchange      EXHF   =         0.00000000
  -V(xc)+E(xc)   XCENC  =      1690.15760116
  PAW double counting   =     28217.01960844   -27699.40053531
  entropy T*S    EENTRO =        -0.00000000
  eigenvalues    EBANDS =     -7452.92272555
  atomic energy  EATOM  =     34968.35250874
  Solvation  Ediel_sol  =         0.00000000
  ---------------------------------------------------
  free energy    TOTEN  =      -975.75689421 eV

  energy without entropy =     -975.75689421  energy(sigma->0) =     -975.75689421


--------------------------------------------------------------------------------------------------------




----------------------------------------- Iteration    1(   4)  ---------------------------------------


     EDDAV:  cpu time    2.2590: real time    2.2720
       DOS:  cpu time    0.0002: real time    0.0002
    --------------------------------------------
      LOOP:  cpu time    2.2668: real time    2.2824

 eigenvalue-minimisations  :   824
 total energy-change (2. order) :-0.1342496E+02  (-0.1338736E+02)
 number of electron     582.0000000 magnetization 
 augmentation part      582.0000000 magnetization 

 Free energy of the ion-electron system (eV)
  ---------------------------------------------------
  alpha Z        PSCENC =       476.21782361
  Ewald energy   TEWEN  =     -2542.69435394
  -Hartree energ DENC   =    -28632.48682138
  -exchange      EXHF   =         0.00000000
  -V(xc)+E(xc)   XCENC  =      1690.15760116
  PAW double counting   =     28217.01960844   -27699.40053531
  entropy T*S    EENTRO =        -0.00000000
  eigenvalues    EBANDS =     -7466.34768328
  atomic energy  EATOM  =     34968.35250874
  Solvation  Ediel_sol  =         0.00000000
  ---------------------------------------------------
  free energy    TOTEN  =      -989.18185194 eV

  energy without entropy =     -989.18185194  energy(sigma->0) =     -989.18185194


--------------------------------------------------------------------------------------------------------




----------------------------------------- Iteration    1(   5)  ---------------------------------------


     EDDAV:  cpu time    2.4646: real time    2.4782
       DOS:  cpu time    0.0003: real time    0.0003
    CHARGE:  cpu time    0.0712: real time    0.0715
    MIXING:  cpu time    0.0031: real time    0.0037
    --------------------------------------------
      LOOP:  cpu time    2.5486: real time    2.5645

 eigenvalue-minimisations  :   832
 total energy-change (2. order) :-0.4191716E+00  (-0.4187198E+00)
 number of electron     582.0000110 magnetization 
 augmentation part       53.4107614 magnetization 

 Broyden mixing:
  rms(total) = 0.85566E+01    rms(broyden)= 0.85522E+01
  rms(prec ) = 0.93277E+01
  weight for this iteration     100.00

 Free energy of the ion-electron system (eV)
  ---------------------------------------------------
  alpha Z        PSCENC =       476.21782361
  Ewald energy   TEWEN  =     -2542.69435394
  -Hartree energ DENC   =    -28632.48682138
  -exchange      EXHF   =         0.00000000
  -V(xc)+E(xc)   XCENC  =      1690.15760116
  PAW double counting   =     28217.01960844   -27699.40053531
  entropy T*S    EENTRO =        -0.00000000
  eigenvalues    EBANDS =     -7466.76685489
  atomic energy  EATOM  =     34968.35250874
  Solvation  Ediel_sol  =         0.00000000
  ---------------------------------------------------
  free energy    TOTEN  =      -989.60102355 eV

  energy without entropy =     -989.60102355  energy(sigma->0) =     -989.60102355


--------------------------------------------------------------------------------------------------------




----------------------------------------- Iteration    1(   6)  ---------------------------------------


    POTLOK:  cpu time    0.0527: real time    0.0528
    SETDIJ:  cpu time    0.0052: real time    0.0053
     EDDAV:  cpu time    2.1999: real time    2.2115
       DOS:  cpu time    0.0003: real time    0.0002
    CHARGE:  cpu time    0.0617: real time    0.0621
    MIXING:  cpu time    0.0019: real time    0.0021
    --------------------------------------------
      LOOP:  cpu time    2.3247: real time    2.3386

 eigenvalue-minimisations  :   800
 total energy-change (2. order) : 0.1158931E+03  (-0.5068932E+02)
 number of electron     582.0000092 magnetization 
 augmentation part       43.3166491 magnetization 

 Broyden mixing:
  rms(total) = 0.39637E+01    rms(broyden)= 0.39617E+01
  rms(prec ) = 0.40473E+01
  weight for this iteration     100.00

 eigenvalues of (default mixing * dielectric matrix)
  average eigenvalue GAMMA=   1.1539
  1.1539

 Free energy of the ion-electron system (eV)
  ---------------------------------------------------
  alpha Z        PSCENC =       476.21782361
  Ewald energy   TEWEN  =     -2542.69435394
  -Hartree energ DENC   =    -30003.50193632
  -exchange      EXHF   =         0.00000000
  -V(xc)+E(xc)   XCENC  =      1777.29205478
  PAW double counting   =     49508.11805556   -49014.72542865
  entropy T*S    EENTRO =        -0.00000000
  eigenvalues    EBANDS =     -6042.76662929
  atomic energy  EATOM  =     34968.35250874
  Solvation  Ediel_sol  =         0.00000000
  ---------------------------------------------------
  free energy    TOTEN  =      -873.70790550 eV

  energy without entropy =     -873.70790550  energy(sigma->0) =     -873.70790550


--------------------------------------------------------------------------------------------------------




----------------------------------------- Iteration    1(   7)  ---------------------------------------


    POTLOK:  cpu time    0.0504: real time    0.0506
    SETDIJ:  cpu time    0.0055: real time    0.0055
     EDDAV:  cpu time    2.4180: real time    2.4316
       DOS:  cpu time    0.0002: real time    0.0002
    CHARGE:  cpu time    0.0680: real time    0.0692
    MIXING:  cpu time    0.0015: real time    0.0015
    --------------------------------------------
      LOOP:  cpu time    2.5458: real time    2.5623

 eigenvalue-minimisations  :   912
 total energy-change (2. order) : 0.5143028E+00  (-0.1635276E+01)
 number of electron     582.0000091 magnetization 
 augmentation part       42.4977781 magnetization 

 Broyden mixing:
  rms(total) = 0.15049E+01    rms(broyden)= 0.15047E+01
  rms(prec ) = 0.15741E+01
  weight for this iteration     100.00

 eigenvalues of (default mixing * dielectric matrix)
  average eigenvalue GAMMA=   1.2798
  1.2798  1.2798

 Free energy of the ion-electron system (eV)
  ---------------------------------------------------
  alpha Z        PSCENC =       476.21782361
  Ewald energy   TEWEN  =     -2542.69435394
  -Hartree energ DENC   =    -30223.06797116
  -exchange      EXHF   =         0.00000000
  -V(xc)+E(xc)   XCENC  =      1789.64158744
  PAW double counting   =     72157.81826978   -71664.60364150
  entropy T*S    EENTRO =        -0.00000000
  eigenvalues    EBANDS =     -5834.85782563
  atomic energy  EATOM  =     34968.35250874
  Solvation  Ediel_sol  =         0.00000000
  ---------------------------------------------------
  free energy    TOTEN  =      -873.19360267 eV

  energy without entropy =     -873.19360267  energy(sigma->0) =     -873.19360267


--------------------------------------------------------------------------------------------------------




----------------------------------------- Iteration    1(   8)  ---------------------------------------


    POTLOK:  cpu time    0.0497: real time    0.0499
    SETDIJ:  cpu time    0.0057: real time    0.0058
     EDDAV:  cpu time    2.2501: real time    2.2631
       DOS:  cpu time    0.0002: real time    0.0002
    CHARGE:  cpu time    0.0678: real time    0.0683
    MIXING:  cpu time    0.0014: real time    0.0014
    --------------------------------------------
      LOOP:  cpu time    2.3774: real time    2.3931

 eigenvalue-minimisations  :   824
 total energy-change (2. order) : 0.4811030E+00  (-0.1153373E+00)
 number of electron     582.0000091 magnetization 
 augmentation part       42.7463885 magnetization 

 Broyden mixing:
  rms(total) = 0.60029E+00    rms(broyden)= 0.60029E+00
  rms(prec ) = 0.64499E+00
  weight for this iteration     100.00

 eigenvalues of (default mixing * dielectric matrix)
  average eigenvalue GAMMA=   1.5413
  1.0850  1.0850  2.4539

 Free energy of the ion-electron system (eV)
  ---------------------------------------------------
  alpha Z        PSCENC =       476.21782361
  Ewald energy   TEWEN  =     -2542.69435394
  -Hartree energ DENC   =    -30315.80098731
  -exchange      EXHF   =         0.00000000
  -V(xc)+E(xc)   XCENC  =      1793.74304580
  PAW double counting   =     83613.13437825   -83120.15418625
  entropy T*S    EENTRO =        -0.00000000
  eigenvalues    EBANDS =     -5745.51072860
  atomic energy  EATOM  =     34968.35250874
  Solvation  Ediel_sol  =         0.00000000
  ---------------------------------------------------
  free energy    TOTEN  =      -872.71249970 eV

  energy without entropy =     -872.71249970  energy(sigma->0) =     -872.71249970


--------------------------------------------------------------------------------------------------------




----------------------------------------- Iteration    1(   9)  ---------------------------------------


    POTLOK:  cpu time    0.0484: real time    0.0487
    SETDIJ:  cpu time    0.0054: real time    0.0055
     EDDAV:  cpu time    2.2289: real time    2.2406
       DOS:  cpu time    0.0004: real time    0.0004
    CHARGE:  cpu time    0.0644: real time    0.0647
    MIXING:  cpu time    0.0014: real time    0.0014
    --------------------------------------------
      LOOP:  cpu time    2.3515: real time    2.3653

 eigenvalue-minimisations  :   824
 total energy-change (2. order) : 0.1427373E+00  (-0.4443471E-01)
 number of electron     582.0000091 magnetization 
 augmentation part       42.6500971 magnetization 

 Broyden mixing:
  rms(total) = 0.10220E+00    rms(broyden)= 0.10217E+00
  rms(prec ) = 0.12957E+00
  weight for this iteration     100.00

 eigenvalues of (default mixing * dielectric matrix)
  average eigenvalue GAMMA=   1.5068
  2.5051  1.0330  1.0330  1.4563

 Free energy of the ion-electron system (eV)
  ---------------------------------------------------
  alpha Z        PSCENC =       476.21782361
  Ewald energy   TEWEN  =     -2542.69435394
  -Hartree energ DENC   =    -30442.07961885
  -exchange      EXHF   =         0.00000000
  -V(xc)+E(xc)   XCENC  =      1800.12664256
  PAW double counting   =     92341.81095642   -91849.61440605
  entropy T*S    EENTRO =        -0.00000000
  eigenvalues    EBANDS =     -5624.68931491
  atomic energy  EATOM  =     34968.35250874
  Solvation  Ediel_sol  =         0.00000000
  ---------------------------------------------------
  free energy    TOTEN  =      -872.56976241 eV

  energy without entropy =     -872.56976241  energy(sigma->0) =     -872.56976241


--------------------------------------------------------------------------------------------------------




----------------------------------------- Iteration    1(  10)  ---------------------------------------


    POTLOK:  cpu time    0.0480: real time    0.0483
    SETDIJ:  cpu time    0.0049: real time    0.0049
     EDDAV:  cpu time    2.1801: real time    2.1931
       DOS:  cpu time    0.0002: real time    0.0003
    CHARGE:  cpu time    0.0659: real time    0.0662
    MIXING:  cpu time    0.0017: real time    0.0017
    --------------------------------------------
      LOOP:  cpu time    2.3027: real time    2.3185

 eigenvalue-minimisations  :   808
 total energy-change (2. order) :-0.3167310E-03  (-0.8608231E-02)
 number of electron     582.0000091 magnetization 
 augmentation part       42.5933546 magnetization 

 Broyden mixing:
  rms(total) = 0.68051E-01    rms(broyden)= 0.68023E-01
  rms(prec ) = 0.88067E-01
  weight for this iteration     100.00

 eigenvalues of (default mixing * dielectric matrix)
  average eigenvalue GAMMA=   1.4378
  2.5403  1.5697  1.0171  1.0310  1.0310

 Free energy of the ion-electron system (eV)
  ---------------------------------------------------
  alpha Z        PSCENC =       476.21782361
  Ewald energy   TEWEN  =     -2542.69435394
  -Hartree energ DENC   =    -30470.91286589
  -exchange      EXHF   =         0.00000000
  -V(xc)+E(xc)   XCENC  =      1801.06118170
  PAW double counting   =     91893.15542294   -91400.90843110
  entropy T*S    EENTRO =        -0.00000000
  eigenvalues    EBANDS =     -5596.84136522
  atomic energy  EATOM  =     34968.35250874
  Solvation  Ediel_sol  =         0.00000000
  ---------------------------------------------------
  free energy    TOTEN  =      -872.57007915 eV

  energy without entropy =     -872.57007915  energy(sigma->0) =     -872.57007915


--------------------------------------------------------------------------------------------------------




----------------------------------------- Iteration    1(  11)  ---------------------------------------


    POTLOK:  cpu time    0.0488: real time    0.0491
    SETDIJ:  cpu time    0.0053: real time    0.0053
     EDDAV:  cpu time    2.1370: real time    2.1487
       DOS:  cpu time    0.0003: real time    0.0003
    CHARGE:  cpu time    0.0605: real time    0.0608
    MIXING:  cpu time    0.0016: real time    0.0016
    --------------------------------------------
      LOOP:  cpu time    2.2557: real time    2.2759

 eigenvalue-minimisations  :   784
 total energy-change (2. order) :-0.6578876E-03  (-0.2110598E-02)
 number of electron     582.0000091 magnetization 
 augmentation part       42.6227653 magnetization 

 Broyden mixing:
  rms(total) = 0.29776E-01    rms(broyden)= 0.29767E-01
  rms(prec ) = 0.50282E-01
  weight for this iteration     100.00

 eigenvalues of (default mixing * dielectric matrix)
  average eigenvalue GAMMA=   1.5061
  2.5263  2.3168  1.0544  1.0544  1.0422  1.0422

 Free energy of the ion-electron system (eV)
  ---------------------------------------------------
  alpha Z        PSCENC =       476.21782361
  Ewald energy   TEWEN  =     -2542.69435394
  -Hartree energ DENC   =    -30482.21416612
  -exchange      EXHF   =         0.00000000
  -V(xc)+E(xc)   XCENC  =      1801.16110212
  PAW double counting   =     91504.81949808   -91012.42046807
  entropy T*S    EENTRO =        -0.00000000
  eigenvalues    EBANDS =     -5585.79268146
  atomic energy  EATOM  =     34968.35250874
  Solvation  Ediel_sol  =         0.00000000
  ---------------------------------------------------
  free energy    TOTEN  =      -872.57073703 eV

  energy without entropy =     -872.57073703  energy(sigma->0) =     -872.57073703


--------------------------------------------------------------------------------------------------------




----------------------------------------- Iteration    1(  12)  ---------------------------------------


    POTLOK:  cpu time    0.0718: real time    0.0721
    SETDIJ:  cpu time    0.0049: real time    0.0049
     EDDAV:  cpu time    2.1463: real time    2.1583
       DOS:  cpu time    0.0002: real time    0.0002
    CHARGE:  cpu time    0.0615: real time    0.0618
    MIXING:  cpu time    0.0018: real time    0.0019
    --------------------------------------------
      LOOP:  cpu time    2.2887: real time    2.3063

 eigenvalue-minimisations  :   792
 total energy-change (2. order) :-0.6322807E-02  (-0.7239584E-03)
 number of electron     582.0000091 magnetization 
 augmentation part       42.6126782 magnetization 

 Broyden mixing:
  rms(total) = 0.14994E-01    rms(broyden)= 0.14985E-01
  rms(prec ) = 0.28798E-01
  weight for this iteration     100.00

 eigenvalues of (default mixing * dielectric matrix)
  average eigenvalue GAMMA=   1.5651
  3.0178  2.5211  1.2087  1.2087  0.9928  1.0031  1.0031

 Free energy of the ion-electron system (eV)
  ---------------------------------------------------
  alpha Z        PSCENC =       476.21782361
  Ewald energy   TEWEN  =     -2542.69435394
  -Hartree energ DENC   =    -30500.08033600
  -exchange      EXHF   =         0.00000000
  -V(xc)+E(xc)   XCENC  =      1801.52284399
  PAW double counting   =     91070.76296956   -90578.28648649
  entropy T*S    EENTRO =        -0.00000000
  eigenvalues    EBANDS =     -5568.37202932
  atomic energy  EATOM  =     34968.35250874
  Solvation  Ediel_sol  =         0.00000000
  ---------------------------------------------------
  free energy    TOTEN  =      -872.57705984 eV

  energy without entropy =     -872.57705984  energy(sigma->0) =     -872.57705984


--------------------------------------------------------------------------------------------------------




----------------------------------------- Iteration    1(  13)  ---------------------------------------


    POTLOK:  cpu time    0.2150: real time    0.2156
    SETDIJ:  cpu time    0.0049: real time    0.0049
     EDDAV:  cpu time    2.4040: real time    2.4162
       DOS:  cpu time    0.0002: real time    0.0002
    CHARGE:  cpu time    0.0726: real time    0.0740
    MIXING:  cpu time    0.0018: real time    0.0018
    --------------------------------------------
      LOOP:  cpu time    2.7011: real time    2.7169

 eigenvalue-minimisations  :   808
 total energy-change (2. order) :-0.1151467E-01  (-0.4431386E-03)
 number of electron     582.0000091 magnetization 
 augmentation part       42.6198728 magnetization 

 Broyden mixing:
  rms(total) = 0.17677E-01    rms(broyden)= 0.17673E-01
  rms(prec ) = 0.21724E-01
  weight for this iteration     100.00

 eigenvalues of (default mixing * dielectric matrix)
  average eigenvalue GAMMA=   1.6524
  2.8093  2.8093  2.3540  0.9614  1.0897  1.0897  1.0528  1.0528

 Free energy of the ion-electron system (eV)
  ---------------------------------------------------
  alpha Z        PSCENC =       476.21782361
  Ewald energy   TEWEN  =     -2542.69435394
  -Hartree energ DENC   =    -30512.01007119
  -exchange      EXHF   =         0.00000000
  -V(xc)+E(xc)   XCENC  =      1801.64939080
  PAW double counting   =     90967.94067026   -90475.39040183
  entropy T*S    EENTRO =        -0.00000000
  eigenvalues    EBANDS =     -5556.65414095
  atomic energy  EATOM  =     34968.35250874
  Solvation  Ediel_sol  =         0.00000000
  ---------------------------------------------------
  free energy    TOTEN  =      -872.58857451 eV

  energy without entropy =     -872.58857451  energy(sigma->0) =     -872.58857451


--------------------------------------------------------------------------------------------------------




----------------------------------------- Iteration    1(  14)  ---------------------------------------


    POTLOK:  cpu time    0.0740: real time    0.0743
    SETDIJ:  cpu time    0.0051: real time    0.0051
     EDDAV:  cpu time    2.1826: real time    2.1953
       DOS:  cpu time    0.0003: real time    0.0003
    CHARGE:  cpu time    0.0675: real time    0.0678
    MIXING:  cpu time    0.0024: real time    0.0024
    --------------------------------------------
      LOOP:  cpu time    2.3344: real time    2.3499

 eigenvalue-minimisations  :   808
 total energy-change (2. order) :-0.9530239E-02  (-0.2413647E-03)
 number of electron     582.0000091 magnetization 
 augmentation part       42.6119742 magnetization 

 Broyden mixing:
  rms(total) = 0.56289E-02    rms(broyden)= 0.56222E-02
  rms(prec ) = 0.73815E-02
  weight for this iteration     100.00

 eigenvalues of (default mixing * dielectric matrix)
  average eigenvalue GAMMA=   1.7705
  4.5633  2.6536  2.3500  1.0278  1.0278  1.1974  1.1118  1.1118  0.8911

 Free energy of the ion-electron system (eV)
  ---------------------------------------------------
  alpha Z        PSCENC =       476.21782361
  Ewald energy   TEWEN  =     -2542.69435394
  -Hartree energ DENC   =    -30519.19666984
  -exchange      EXHF   =         0.00000000
  -V(xc)+E(xc)   XCENC  =      1801.73299721
  PAW double counting   =     91212.03728154   -90719.51485916
  entropy T*S    EENTRO =        -0.00000000
  eigenvalues    EBANDS =     -5549.53283293
  atomic energy  EATOM  =     34968.35250874
  Solvation  Ediel_sol  =         0.00000000
  ---------------------------------------------------
  free energy    TOTEN  =      -872.59810475 eV

  energy without entropy =     -872.59810475  energy(sigma->0) =     -872.59810475


--------------------------------------------------------------------------------------------------------




----------------------------------------- Iteration    1(  15)  ---------------------------------------


    POTLOK:  cpu time    0.0483: real time    0.0485
    SETDIJ:  cpu time    0.0054: real time    0.0054
     EDDAV:  cpu time    2.3487: real time    2.3615
       DOS:  cpu time    0.0003: real time    0.0003
    CHARGE:  cpu time    0.0652: real time    0.0655
    MIXING:  cpu time    0.0028: real time    0.0028
    --------------------------------------------
      LOOP:  cpu time    2.4734: real time    2.4885

 eigenvalue-minimisations  :   824
 total energy-change (2. order) :-0.1958171E-02  (-0.4563602E-04)
 number of electron     582.0000091 magnetization 
 augmentation part       42.6104035 magnetization 

 Broyden mixing:
  rms(total) = 0.54622E-02    rms(broyden)= 0.54609E-02
  rms(prec ) = 0.62419E-02
  weight for this iteration     100.00

 eigenvalues of (default mixing * dielectric matrix)
  average eigenvalue GAMMA=   1.7015
  4.7209  2.7162  2.4062  1.0692  1.0692  1.1452  1.1452  1.0705  0.8360  0.8360

 Free energy of the ion-electron system (eV)
  ---------------------------------------------------
  alpha Z        PSCENC =       476.21782361
  Ewald energy   TEWEN  =     -2542.69435394
  -Hartree energ DENC   =    -30521.68733165
  -exchange      EXHF   =         0.00000000
  -V(xc)+E(xc)   XCENC  =      1801.76931150
  PAW double counting   =     91204.39854172   -90711.87309330
  entropy T*S    EENTRO =        -0.00000000
  eigenvalues    EBANDS =     -5547.08346961
  atomic energy  EATOM  =     34968.35250874
  Solvation  Ediel_sol  =         0.00000000
  ---------------------------------------------------
  free energy    TOTEN  =      -872.60006292 eV

  energy without entropy =     -872.60006292  energy(sigma->0) =     -872.60006292


--------------------------------------------------------------------------------------------------------




----------------------------------------- Iteration    1(  16)  ---------------------------------------


    POTLOK:  cpu time    0.0500: real time    0.0503
    SETDIJ:  cpu time    0.0053: real time    0.0054
     EDDAV:  cpu time    2.2301: real time    2.2425
       DOS:  cpu time    0.0008: real time    0.0008
    CHARGE:  cpu time    0.0652: real time    0.0657
    MIXING:  cpu time    0.0024: real time    0.0024
    --------------------------------------------
      LOOP:  cpu time    2.3566: real time    2.3714

 eigenvalue-minimisations  :   824
 total energy-change (2. order) :-0.5572778E-03  (-0.1406431E-04)
 number of electron     582.0000091 magnetization 
 augmentation part       42.6111321 magnetization 

 Broyden mixing:
  rms(total) = 0.37970E-02    rms(broyden)= 0.37963E-02
  rms(prec ) = 0.42227E-02
  weight for this iteration     100.00

 eigenvalues of (default mixing * dielectric matrix)
  average eigenvalue GAMMA=   1.7120
  5.0322  2.6918  2.3767  1.2856  1.2856  1.0133  1.0133  1.1482  1.1482  1.0182
  0.8192

 Free energy of the ion-electron system (eV)
  ---------------------------------------------------
  alpha Z        PSCENC =       476.21782361
  Ewald energy   TEWEN  =     -2542.69435394
  -Hartree energ DENC   =    -30521.89887522
  -exchange      EXHF   =         0.00000000
  -V(xc)+E(xc)   XCENC  =      1801.76157560
  PAW double counting   =     91211.20477712   -90718.68179019
  entropy T*S    EENTRO =        -0.00000000
  eigenvalues    EBANDS =     -5546.86228593
  atomic energy  EATOM  =     34968.35250874
  Solvation  Ediel_sol  =         0.00000000
  ---------------------------------------------------
  free energy    TOTEN  =      -872.60062020 eV

  energy without entropy =     -872.60062020  energy(sigma->0) =     -872.60062020


--------------------------------------------------------------------------------------------------------




----------------------------------------- Iteration    1(  17)  ---------------------------------------


    POTLOK:  cpu time    0.0476: real time    0.0479
    SETDIJ:  cpu time    0.0050: real time    0.0050
     EDDAV:  cpu time    2.1753: real time    2.1869
       DOS:  cpu time    0.0003: real time    0.0003
    CHARGE:  cpu time    0.0630: real time    0.0633
    MIXING:  cpu time    0.0024: real time    0.0024
    --------------------------------------------
      LOOP:  cpu time    2.2966: real time    2.3106

 eigenvalue-minimisations  :   800
 total energy-change (2. order) :-0.3029998E-03  (-0.8589222E-05)
 number of electron     582.0000091 magnetization 
 augmentation part       42.6123584 magnetization 

 Broyden mixing:
  rms(total) = 0.18136E-02    rms(broyden)= 0.18126E-02
  rms(prec ) = 0.21858E-02
  weight for this iteration     100.00

[...]
   0.106E+03 -.565E+02 0.216E+03   -.111E+03 0.585E+02 -.237E+03   0.465E+01 -.202E+01 0.203E+02   -.391E-04 -.627E-04 -.298E-04
   0.126E+03 -.754E+02 0.190E+03   -.133E+03 0.793E+02 -.206E+03   0.673E+01 -.394E+01 0.169E+02   -.436E-03 0.321E-03 0.686E-05
   0.111E+03 -.215E+03 -.172E+01   -.119E+03 0.233E+03 0.143E+01   0.834E+01 -.181E+02 0.285E+00   0.313E-03 0.221E-03 -.107E-05
   -.679E+02 0.564E+02 -.152E+03   0.847E+02 -.661E+02 0.164E+03   -.169E+02 0.974E+01 -.117E+02   -.799E-04 -.158E-03 -.159E-03
   0.118E+03 -.184E+03 0.374E+00   -.123E+03 0.198E+03 0.854E+00   0.564E+01 -.131E+02 -.123E+01   -.199E-03 -.587E-04 -.808E-04
   -.258E+03 0.187E+02 -.409E+01   0.279E+03 -.222E+02 0.451E+01   -.212E+02 0.350E+01 -.427E+00   -.134E-03 -.436E-05 0.209E-04
   0.228E+03 0.142E+01 -.759E+00   -.248E+03 -.147E+01 0.175E+01   0.204E+02 0.432E-01 -.992E+00   0.181E-03 0.218E-03 0.208E-04
   -.125E+03 -.195E+03 -.121E+02   0.137E+03 0.211E+03 0.133E+02   -.111E+02 -.169E+02 -.123E+01   0.461E-03 0.337E-03 0.685E-04
   -.236E+01 -.922E+02 -.167E+03   0.325E+01 0.106E+03 0.180E+03   -.895E+00 -.142E+02 -.133E+02   -.171E-05 -.214E-03 0.693E-04
   -.713E+02 0.389E+02 -.142E+03   0.830E+02 -.458E+02 0.152E+03   -.117E+02 0.684E+01 -.101E+02   0.291E-03 0.515E-04 -.204E-04
   -.171E+01 -.130E+03 -.203E+03   0.174E+01 0.136E+03 0.221E+03   -.377E-01 -.631E+01 -.182E+02   0.119E-03 0.293E-03 -.762E-04
   0.541E+01 -.799E+02 -.145E+03   -.604E+01 0.961E+02 0.155E+03   0.628E+00 -.162E+02 -.106E+02   -.254E-05 0.604E-04 0.263E-06
   0.329E+00 -.966E+02 -.161E+03   -.139E+00 0.113E+03 0.173E+03   -.191E+00 -.168E+02 -.117E+02   0.414E-04 0.561E-04 -.832E-04
   0.742E+02 0.426E+02 -.165E+03   -.873E+02 -.504E+02 0.178E+03   0.131E+02 0.782E+01 -.137E+02   0.260E-03 0.178E-03 -.110E-03
   0.115E+03 -.209E+03 -.260E+01   -.123E+03 0.226E+03 0.273E+01   0.833E+01 -.163E+02 -.137E+00   -.168E-03 0.238E-03 -.207E-04
   0.630E+02 -.505E+02 0.147E+03   -.755E+02 0.583E+02 -.159E+03   0.125E+02 -.782E+01 0.121E+02   0.355E-03 0.763E-04 0.285E-03
   -.612E+02 -.618E+02 0.138E+03   0.745E+02 0.704E+02 -.152E+03   -.133E+02 -.858E+01 0.134E+02   -.356E-03 0.613E-04 0.152E-03
   0.447E+02 -.838E+02 0.121E+03   -.536E+02 0.100E+03 -.119E+03   0.886E+01 -.162E+02 -.134E+01   -.516E-04 0.216E-03 -.586E-04
   0.754E+02 0.275E+02 -.984E+02   -.885E+02 -.321E+02 0.988E+02   0.131E+02 0.458E+01 -.439E+00   -.309E-03 0.694E-04 -.185E-03
   -.254E+01 0.101E+03 0.182E+03   0.312E+01 -.116E+03 -.198E+03   -.584E+00 0.146E+02 0.160E+02   -.110E-03 -.278E-03 -.240E-04
   -.863E+02 -.432E+02 0.157E+03   0.990E+02 0.500E+02 -.169E+03   -.127E+02 -.676E+01 0.117E+02   0.210E-03 -.362E-04 0.735E-04
   -.604E+02 -.317E+02 0.132E+03   0.723E+02 0.385E+02 -.140E+03   -.119E+02 -.682E+01 0.815E+01   0.165E-03 0.179E-03 -.426E-04
   0.139E+02 -.203E+03 0.467E+02   -.163E+02 0.221E+03 -.456E+02   0.235E+01 -.179E+02 -.105E+01   -.330E-03 0.141E-03 -.197E-03
   0.720E+02 -.388E+02 0.157E+03   -.848E+02 0.464E+02 -.170E+03   0.128E+02 -.761E+01 0.125E+02   -.289E-03 0.891E-04 -.369E-04
   -.329E+02 0.204E+03 -.975E+02   0.383E+02 -.222E+03 0.106E+03   -.539E+01 0.175E+02 -.853E+01   -.192E-03 -.266E-03 0.234E-04
   0.947E+02 0.198E+03 -.104E+02   -.105E+03 -.216E+03 0.101E+02   0.103E+02 0.175E+02 0.373E+00   0.214E-03 -.306E-03 0.185E-03
   0.317E+01 0.827E+02 0.153E+03   -.313E+01 -.983E+02 -.165E+03   -.399E-01 0.156E+02 0.123E+02   0.353E-04 0.302E-03 0.140E-03
   0.248E+03 -.670E+01 -.133E+02   -.270E+03 0.665E+01 0.150E+02   0.219E+02 0.561E-01 -.169E+01   -.225E-03 -.289E-03 0.233E-03
   0.881E+01 -.651E+02 -.533E+02   -.933E+01 0.665E+02 0.514E+02   0.524E+00 -.145E+01 0.197E+01   -.184E-03 0.172E-03 -.268E-04
   -.350E+01 0.631E+02 0.358E+02   0.421E+01 -.626E+02 -.350E+02   -.713E+00 -.472E+00 -.739E+00   0.145E-03 -.187E-03 0.116E-03
   -.580E+02 -.379E+02 0.438E+02   0.580E+02 0.376E+02 -.432E+02   0.276E-01 0.336E+00 -.594E+00   -.924E-04 0.102E-03 -.775E-04
   0.590E+02 0.426E+02 -.491E+02   -.586E+02 -.418E+02 0.489E+02   -.372E+00 -.796E+00 0.163E+00   -.225E-03 -.493E-04 0.988E-04
   -.113E+02 0.643E+02 0.472E+02   0.116E+02 -.644E+02 -.472E+02   -.351E+00 0.668E-01 -.216E-01   0.930E-04 -.844E-04 -.399E-04
   -.589E+02 0.242E+02 -.483E+02   0.576E+02 -.261E+02 0.466E+02   0.132E+01 0.192E+01 0.170E+01   0.122E-03 0.113E-04 0.209E-04
   -.665E+02 0.259E+02 -.429E+02   0.664E+02 -.259E+02 0.431E+02   0.796E-01 0.638E-01 -.248E+00   0.184E-03 -.134E-03 0.953E-04
   -.114E+02 -.666E+02 -.484E+02   0.109E+02 0.663E+02 0.476E+02   0.508E+00 0.373E+00 0.867E+00   0.223E-03 0.219E-03 0.538E-04
   -.603E+02 0.381E+02 -.440E+02   0.599E+02 -.378E+02 0.438E+02   0.379E+00 -.355E+00 0.183E+00   0.236E-03 0.117E-04 0.259E-04
   0.652E+01 -.689E+02 -.467E+02   -.636E+01 0.685E+02 0.465E+02   -.166E+00 0.362E+00 0.271E+00   0.134E-03 0.219E-03 0.438E-04
   0.595E+02 0.269E+02 -.507E+02   -.591E+02 -.270E+02 0.496E+02   -.393E+00 0.335E-01 0.110E+01   -.689E-04 -.178E-04 0.466E-04
   -.551E+02 0.303E+02 -.415E+02   0.553E+02 -.308E+02 0.419E+02   -.219E+00 0.445E+00 -.359E+00   0.277E-05 -.327E-04 0.706E-04
   -.714E+01 -.704E+02 -.428E+02   0.690E+01 0.701E+02 0.428E+02   0.241E+00 0.308E+00 -.878E-02   -.262E-04 0.219E-03 -.608E-05
   -.637E+02 0.409E+02 -.392E+02   0.632E+02 -.407E+02 0.391E+02   0.500E+00 -.197E+00 0.143E+00   -.262E-04 -.137E-03 0.551E-04
   0.601E+02 -.267E+02 0.475E+02   -.586E+02 0.266E+02 -.472E+02   -.144E+01 0.122E+00 -.300E+00   0.133E-03 0.881E-04 -.299E-04
   -.494E+01 -.753E+02 -.309E+02   0.466E+01 0.742E+02 0.308E+02   0.284E+00 0.114E+01 0.555E-01   -.833E-04 -.499E-04 -.800E-04
   0.489E+02 0.423E+02 -.461E+02   -.482E+02 -.417E+02 0.455E+02   -.740E+00 -.609E+00 0.617E+00   0.114E-03 -.156E-03 0.101E-03
   0.125E+01 0.667E+02 0.598E+02   -.611E+00 -.628E+02 -.591E+02   -.634E+00 -.391E+01 -.712E+00   0.629E-04 0.163E-03 -.101E-03
   -.681E+02 -.235E+02 0.437E+02   0.675E+02 0.235E+02 -.436E+02   0.538E+00 0.227E-02 -.154E+00   0.971E-05 -.113E-03 -.833E-04
   0.652E+02 0.179E+02 -.577E+02   -.649E+02 -.184E+02 0.572E+02   -.311E+00 0.554E+00 0.427E+00   -.160E-03 -.160E-03 0.199E-03
   0.906E+01 -.576E+02 -.317E+02   -.115E+02 0.596E+02 0.327E+02   0.243E+01 -.199E+01 -.105E+01   -.193E-03 0.438E-04 -.563E-04
   0.674E+02 0.362E+02 -.426E+02   -.666E+02 -.354E+02 0.423E+02   -.822E+00 -.832E+00 0.264E+00   0.128E-04 -.129E-04 -.312E-04
   0.419E+02 -.399E+02 0.490E+02   -.415E+02 0.396E+02 -.489E+02   -.403E+00 0.297E+00 -.163E+00   0.125E-03 0.744E-05 -.853E-04
   -.571E+02 -.419E+02 0.444E+02   0.573E+02 0.416E+02 -.438E+02   -.141E+00 0.203E+00 -.614E+00   0.332E-03 0.213E-03 0.335E-04
   0.668E+02 -.204E+02 0.541E+02   -.663E+02 0.205E+02 -.525E+02   -.431E+00 -.661E-01 -.160E+01   -.146E-03 -.138E-03 0.163E-04
   -.159E+02 0.438E+02 -.548E+02   0.155E+02 -.430E+02 0.571E+02   0.318E+00 -.763E+00 -.233E+01   -.200E-03 -.164E-03 0.456E-04
   0.655E+02 -.286E+02 0.450E+02   -.646E+02 0.290E+02 -.442E+02   -.817E+00 -.418E+00 -.802E+00   -.211E-03 0.174E-03 -.144E-04
   0.297E+01 0.610E+02 0.203E+02   -.296E+01 -.598E+02 -.188E+02   -.985E-02 -.124E+01 -.150E+01   -.930E-04 -.196E-03 0.742E-04
   0.565E+01 0.717E+02 0.465E+02   -.561E+01 -.713E+02 -.456E+02   -.399E-01 -.460E+00 -.924E+00   -.166E-03 -.410E-04 -.140E-04
   -.609E+02 -.298E+02 0.444E+02   0.605E+02 0.298E+02 -.436E+02   0.395E+00 -.144E-01 -.762E+00   0.244E-03 0.172E-03 -.631E-05
   0.608E+02 -.412E+02 0.440E+02   -.605E+02 0.408E+02 -.435E+02   -.275E+00 0.397E+00 -.484E+00   0.559E-04 0.137E-03 -.294E-04
   0.652E+02 -.481E+02 0.378E+02   -.648E+02 0.473E+02 -.371E+02   -.371E+00 0.715E+00 -.640E+00   -.329E-03 0.224E-03 -.382E-04
   -.604E+02 -.254E+02 0.479E+02   0.623E+02 0.228E+02 -.486E+02   -.191E+01 0.261E+01 0.708E+00   0.112E-03 -.644E-04 -.107E-03
   -.802E+01 0.731E+02 0.449E+02   0.770E+01 -.726E+02 -.444E+02   0.317E+00 -.526E+00 -.539E+00   0.114E-03 0.529E-04 -.718E-04
   0.678E+02 0.351E+02 -.417E+02   -.670E+02 -.349E+02 0.414E+02   -.766E+00 -.214E+00 0.367E+00   0.293E-04 0.103E-03 0.418E-04
 -----------------------------------------------------------------------------------------------
   -.174E+02 0.498E+01 0.553E+01   -.412E-12 0.576E-12 0.547E-12   0.174E+02 -.503E+01 -.552E+01   0.736E-03 0.192E-02 -.656E-03
 
 
 POSITION                                       TOTAL-FORCE (eV/Angst)
 -----------------------------------------------------------------------------------
      3.10463      7.96923      8.29669        -0.010973     -0.015682      0.024112
      5.45559      7.92672      9.99991        -0.009257     -0.002032      0.008913
      5.76701      8.11363      8.97047        -0.002435     -0.019843     -0.002968
      5.80369      6.94118     10.33143        -0.009279      0.011999      0.014118
      5.83377      8.70947     10.66134        -0.007475      0.007410     -0.001130
     -2.05664      3.95850     12.40942         0.014536     -0.001239     -0.000388
     -0.04157      5.01472      7.94598        -0.001689      0.008872      0.012652
      6.85135      1.14201      2.98823        -0.000948      0.007654      0.013359
      6.79152      9.02241     12.89980        -0.002976      0.005250      0.006542
      2.45933      6.47836     11.70222        -0.004291      0.005797     -0.014681
     -4.36490     10.44528      1.95060        -0.008135      0.003190     -0.012029
     -2.53672      6.48899     11.89820         0.007081      0.003754     -0.013165
      4.21927      2.47888      6.80913         0.008796      0.004675     -0.013412
      4.41995     10.48465      2.07453         0.006903      0.004146     -0.013925
     -2.45859      9.34908      8.02569         0.006837     -0.002976      0.013905
     11.67101      1.18880      1.86506        -0.001073      0.003757     -0.011704
      2.43489      1.42832     12.84426        -0.007008     -0.004238      0.012137
      8.97101      5.23453      6.66824         0.002603      0.001532     -0.011878
     -0.01542     10.34517      8.09304        -0.000597      0.003480      0.010772
     11.31677      3.76846      2.45428        -0.008282     -0.010865     -0.000795
      8.81963      0.14577      7.49718        -0.014270      0.001494     -0.001454
     -4.44275      7.78332      7.36514         0.004039     -0.012589      0.001812
      2.40854      3.73601      2.44207         0.007274     -0.013176     -0.000611
      8.96986      7.89364      2.39858        -0.014769      0.000083      0.000024
      2.42521      4.29831      7.42554         0.005894      0.012270      0.001808
      9.26877      0.21304      2.53442         0.007885      0.012892     -0.000336
      2.34840     11.57940     12.51138         0.008013     -0.012685     -0.001357
     11.27064      4.14722      7.46952        -0.006441      0.012406     -0.001603
      9.18954      2.64920      6.92794        -0.005663      0.005410     -0.014441
      4.47471      0.22151      2.40734        -0.006644      0.013344      0.001606
      9.38039      5.39848      3.07230        -0.008284     -0.003734      0.014974
      1.97785      4.00959     12.48506        -0.014139     -0.001183     -0.000739
     -0.04414     10.64448     11.95910        -0.000124     -0.007422     -0.013866
     -3.66547      7.86210      9.89288         0.012339     -0.000402     -0.000011
      8.59676      0.91780      4.98771        -0.007264      0.013286     -0.000453
      8.58065      8.82298     14.86040        -0.007726      0.013145      0.000602
      1.63322     11.26435      9.98644        -0.007631     -0.012468     -0.000497
      8.52511      7.16581      4.89065        -0.009342     -0.011018     -0.001806
      1.74665      3.00535     14.88580        -0.007379     -0.013171     -0.001007
      3.24029      4.09745      4.92067         0.015265     -0.000591      0.000335
      6.87860      6.80044      6.96101        -0.000557     -0.007162     -0.006922
      3.28575     11.84145      0.06323         0.015166      0.000197     -0.000014
      2.52027      9.55742      8.14741        -0.004142     -0.006594      0.016998
      3.97421      7.94241     10.01287        -0.014258     -0.000387      0.000637
      3.48939      0.02744     14.85649        -0.015743     -0.000561     -0.000163
     -1.82706      4.83418      9.93087         0.008118      0.013779     -0.004078
      5.04485      0.75265      4.93590         0.007945      0.012999      0.000232
      1.67242      4.60338      9.94395        -0.007926      0.013099     -0.000658
      5.10516      8.86115      0.08403         0.008638      0.011985     -0.000678
      4.43024      5.34137      2.85747         0.006771     -0.003510      0.013328
     11.17814      1.42087     12.95249         0.007529     -0.005057      0.012677
     -1.78646     11.06650      9.95011         0.007560     -0.012499     -0.000739
      4.92704      5.02509      6.76596        -0.000193      0.002034     -0.009928
      5.22123      6.88456      4.87886         0.008350     -0.011680     -0.000695
     10.50772      3.88079      4.95812        -0.013381     -0.001444     -0.002139
      4.76547      0.00030      7.45769         0.014838      0.000614      0.000063
     -2.43977     11.64816     12.42425        -0.006971     -0.012602      0.000124
      6.89361      9.52382      1.92952         0.000174     -0.003916     -0.010862
     -2.13977      9.08951     11.71665        -0.002784      0.001062     -0.010780
     -0.01003      2.83926      1.98768        -0.002636     -0.007023     -0.013576
      6.74474      1.67250      6.76654        -0.000276     -0.001884     -0.010959
     -0.03897      5.60604     11.76207        -0.000552     -0.002838     -0.011419
      2.02058      1.14958      1.89174         0.002403      0.000462     -0.011342
     -1.78020      3.08721     14.88761         0.007323     -0.012512     -0.001755
     -4.88414     10.71547     12.99630         0.001467     -0.002414      0.009720
      4.79969     10.72191     13.06422        -0.000581     -0.004304      0.007350
      1.89926      6.75699      8.43182         0.005471      0.003960      0.012338
      2.06589      9.10608     11.49891         0.004313      0.000354     -0.011354
      6.90737      6.29406      2.92243        -0.000228      0.004273      0.011286
     -2.07696      6.72885      8.06739        -0.003917      0.000464      0.010003
      4.77970      2.75637      3.19312        -0.001099     -0.001158      0.011764
      4.40279      7.61459      7.25018        -0.001412     -0.013018      0.005812
      8.91031      2.79611      3.10850         0.002372     -0.000032      0.010769
      4.31370      8.13021     12.61423        -0.002993      0.012346     -0.005930
     -4.53997      8.13228     12.37129         0.004061      0.012138     -0.001301
     -0.04323      2.31701     13.01509        -0.000667      0.002439      0.010397
      4.82319      7.91841      2.50597         0.014584     -0.000126     -0.000055
      1.50558     10.65609     11.47940         0.006850     -0.028491     -0.020887
      8.36768      9.17987     13.29103        -0.002321      0.025488      0.013465
     10.02078      3.95338      3.40744        -0.026769     -0.016177      0.019619
      3.72532     11.88307      1.63316         0.022771      0.017821     -0.021531
     -1.59312      5.19501      8.35755        -0.002744      0.026899      0.023582
      1.50583      5.17059     11.45505        -0.022917      0.011287     -0.018303
     -5.28598      9.17587      1.55739        -0.027491      0.011330     -0.020506
     -1.60284     10.61162     11.49940        -0.003864     -0.027227     -0.019278
     -3.74784     11.88696      1.55111        -0.026652      0.018325     -0.020252
      1.54613      2.67739      1.57503         0.004248     -0.028969     -0.020219
     -1.60644      5.22111     11.49238         0.026007      0.010157     -0.021588
      8.32590      1.34033      6.53854        -0.025377      0.011390     -0.020112
     -1.56815      2.71758      1.56884        -0.001560     -0.032094     -0.020402
      9.98858      3.98323      6.49886        -0.024972      0.017066     -0.019586
     -1.58015     10.66280      8.38211         0.024742     -0.011178      0.020148
      8.41869      6.74431      6.46122        -0.001549     -0.027515     -0.012990
     -3.21394      7.89616     11.45895         0.018340      0.018263     -0.021806
      1.50748      5.20257      8.41763         0.005847      0.023326      0.022108
      8.43747      6.68234      3.33724        -0.026273     -0.011070      0.020980
      5.31866      9.20272      1.66024         0.026602      0.008990     -0.022287
      5.33422      6.58688      6.46992         0.001130     -0.023265     -0.008947
      3.70175      3.98360      6.48499         0.024483      0.015066     -0.019416
     -3.15155      7.92309      8.34045         0.017553     -0.017415      0.021801
      3.08027      0.00527     13.28444        -0.023070     -0.018366      0.020394
      5.34843      6.60160      3.29900         0.026158     -0.009087      0.022297
      3.15235      7.91433     11.51419        -0.011440      0.017648     -0.022778
     12.12657      2.69143     13.31744         0.027607     -0.010811      0.018809
      5.25884      9.20021     13.40740         0.000611      0.023118      0.006759
      8.40867      1.27321      3.41431         0.003158      0.029548      0.019654
      1.52090      2.68799     13.30931        -0.026199     -0.010691      0.019789
      3.71598      3.97621      3.36938         0.023398     -0.018805      0.020853
      3.68346     11.87603     13.37856         0.025031     -0.018879      0.017487
      1.53352     10.77041      8.42035        -0.025338     -0.010857      0.019793
      5.28379      1.22240      3.39399        -0.004121      0.030433      0.020686
      5.19963      1.22857      6.49135         0.027983      0.012722     -0.018902
 -----------------------------------------------------------------------------------
    total drift:                               -0.065833     -0.052923      0.012286


--------------------------------------------------------------------------------------------------------



  FREE ENERGIE OF THE ION-ELECTRON SYSTEM (eV)
  ---------------------------------------------------
  free  energy   TOTEN  =      -882.67308472 eV

  energy  without entropy=     -882.67308472  energy(sigma->0) =     -882.67308472
 


--------------------------------------------------------------------------------------------------------


    POTLOK:  cpu time    0.3432: real time    0.3444


--------------------------------------------------------------------------------------------------------


     LOOP+:  cpu time   55.0983: real time   55.5654
    4ORBIT:  cpu time    0.0000: real time    0.0000

 total amount of memory used by VASP on root node    53519. kBytes
========================================================================

   base      :      30000. kBytes
   nonlr-proj:       5693. kBytes
   fftplans  :       4343. kBytes
   grid      :       8131. kBytes
   one-center:         58. kBytes
   wavefun   :       5294. kBytes
 
  
  
 General timing and accounting informations for this job:
 ========================================================
  
                  Total CPU time used (sec):       58.094
                            User time (sec):       55.602
                          System time (sec):        2.492
                         Elapsed time (sec):       59.809
  
                   Maximum memory used (kb):      230016.
                   Average memory used (kb):           0.
  
                          Minor page faults:        89334
                          Major page faults:            6
                 Voluntary context switches:         3818
