unknown system                          
           1
    13.729572   -0.004625   -0.001411
    -6.868739   11.890915    0.001820
    -0.001511    0.001307   14.890378
   Al   C    H    O    Si
   1   1   3  72  35
Direct configuration=     1
   0.56155782  0.67035205  0.55715617
   0.73104136  0.66683056  0.67155657
   0.76159004  0.68256838  0.60242306
   0.71492882  0.58393959  0.69382929
   0.79153383  0.73267691  0.71597405
   0.01679885  0.33281592  0.83334605
   0.20802706  0.42174946  0.53359988
   0.54718672  0.09623139  0.20072217
   0.87448251  0.75901002  0.86630820
   0.45182211  0.54490489  0.78586778
   0.12157682  0.87845851  0.13090164
   0.08830954  0.54565607  0.79899439
   0.41171229  0.20857842  0.45729754
   0.76320715  0.88201729  0.13928476
   0.21434409  0.78626177  0.53890938
   0.90026227  0.10031218  0.12532608
   0.23753347  0.12011585  0.86259602
   0.87383563  0.44050317  0.44785139
   0.43424495  0.87011505  0.54344274
   0.98301338  0.31728334  0.16487751
   0.64866916  0.01245605  0.50355169
   0.00390670  0.65450727  0.49454420
   0.33268691  0.31430189  0.16399631
   0.98563503  0.66420365  0.16109511
   0.35758168  0.36156233  0.49867030
   0.68420105  0.01816338  0.17026772
   0.65840256  0.97396590  0.84017565
   0.99561050  0.34910385  0.50168603
   0.78096208  0.22304434  0.46530984
   0.33531135  0.01874108  0.16170027
   0.91054451  0.45433177  0.20635896
   0.31286043  0.33722746  0.83845312
   0.44476230  0.89526215  0.80307563
   0.06385546  0.66113708  0.66430571
   0.66491196  0.07740675  0.33501566
   0.99643454  0.74227091  0.99799064
   0.59303452  0.94746381  0.67060404
   0.92261588  0.60295157  0.32845732
   0.25376676  0.25273233  0.99968567
   0.40849809  0.34470914  0.33045642
   0.78730066  0.57215689  0.46748818
   0.73766967  0.99612619  0.00419470
   0.58581988  0.80392551  0.54711632
   0.62378394  0.66810782  0.67241661
   0.25541043  0.00229760  0.99774779
   0.07036440  0.40649769  0.66688867
   0.39920638  0.06341525  0.33151281
   0.31558833  0.38718367  0.66779287
   0.74479833  0.74549229  0.00562281
   0.54752391  0.44938914  0.19189774
   0.87416383  0.11973657  0.86992433
   0.33558683  0.93072556  0.66814245
   0.57042081  0.42277110  0.45438726
   0.67009440  0.57920091  0.32764483
   0.92881083  0.32669092  0.33302316
   0.34720319  0.00010514  0.50087260
   0.31247917  0.97961447  0.83429120
   0.90297909  0.80126932  0.12956964
   0.22665988  0.76440932  0.78678871
   0.11875690  0.23880729  0.13346981
   0.56175781  0.14082198  0.45445962
   0.23311364  0.47145922  0.78987504
   0.19558110  0.09673889  0.12705107
   0.00028145  0.25951751  0.99978236
   0.09516114  0.90108856  0.87269756
   0.80089598  0.90190431  0.87732571
   0.42273489  0.56835052  0.56623008
   0.53373780  0.76592380  0.77219443
   0.76807250  0.52959412  0.19627131
   0.13188283  0.56587327  0.54172868
   0.46420308  0.23196137  0.21445772
   0.64120081  0.64056667  0.48688627
   0.76678812  0.23542189  0.20880317
   0.65642794  0.68389514  0.84711807
   0.01152749  0.68381992  0.83074174
   0.09440155  0.19479628  0.87404558
   0.68459433  0.66616880  0.16827784
   0.55814586  0.89628655  0.77087074
   0.99593314  0.77229644  0.89259187
   0.89638609  0.33279368  0.22887948
   0.77144923  0.99962804  0.10962987
   0.10258551  0.43686755  0.56122819
   0.32732660  0.43487770  0.76926993
   0.00105661  0.77165959  0.10449645
   0.32982714  0.89245733  0.77219301
   0.22719558  0.99974466  0.10406795
   0.22530907  0.22523851  0.10576885
   0.10272535  0.43903936  0.77175513
   0.66296609  0.11292802  0.43916084
   0.00012612  0.22853072  0.10533152
   0.89530840  0.33528107  0.43649051
   0.33362221  0.89678640  0.56284353
   0.89713206  0.56748308  0.43393458
   0.09818829  0.66400319  0.76948229
   0.32878160  0.43759075  0.56528419
   0.89588066  0.56229431  0.22413687
   0.77473113  0.77421754  0.11147619
   0.66580454  0.55415374  0.43449911
   0.43733030  0.33513414  0.43551624
   0.10385560  0.66629380  0.56005175
   0.22466758  0.00043264  0.89217074
   0.66744784  0.55541548  0.22154753
   0.56273514  0.66571140  0.77323550
   0.99672511  0.22663299  0.89443235
   0.77031113  0.77391805  0.90038546
   0.66615983  0.10730782  0.22934632
   0.22396011  0.22604275  0.89381281
   0.43804426  0.33453631  0.22627932
   0.76814753  0.99894832  0.89842073
   0.56498091  0.90592597  0.56543198
   0.43637463  0.10294573  0.22796033
   0.43051489  0.10343928  0.43597092
