 112 112   0   0
  0.2170079E+02  0.1372957E-08  0.1373220E-08  0.1489038E-08  0.5000000E-15
  1.000000000000000E-004
  CAR 
 unknown system                          
      8.33115650    -24.11052951  301     -2.23942619      1.00000000
    -24.111  0.0000E+00  0.0000E+00
    -24.002  0.0000E+00  0.0000E+00
    -23.894  0.0000E+00  0.0000E+00
    -23.786  0.0000E+00  0.0000E+00
    -23.678  0.0000E+00  0.0000E+00
    -23.570  0.0000E+00  0.0000E+00
    -23.462  0.0000E+00  0.0000E+00
    -23.354  0.0000E+00  0.0000E+00
    -23.245  0.0000E+00  0.0000E+00
    -23.137  0.0000E+00  0.0000E+00
    -23.029  0.0000E+00  0.0000E+00
    -22.921  0.0000E+00  0.0000E+00
    -22.813  0.0000E+00  0.0000E+00
    -22.705  0.0000E+00  0.0000E+00
    -22.597  0.1849E+02  0.2000E+01
    -22.488  0.0000E+00  0.2000E+01
    -22.380  0.0000E+00  0.2000E+01
    -22.272  0.0000E+00  0.2000E+01
    -22.164  0.0000E+00  0.2000E+01
    -22.056  0.1286E-02  0.2000E+01
    -21.948  0.0000E+00  0.4000E+01
    -21.840  0.1057E+02  0.5143E+01
    -21.731  0.5542E+02  0.1199E+02
    -21.623  0.3692E+02  0.1599E+02
    -21.515  0.2440E-04  0.1600E+02
    -21.407  0.5548E+02  0.2200E+02
    -21.299  0.5304E+02  0.2974E+02
    -21.191  0.3288E+02  0.3356E+02
    -21.083  0.3177E+02  0.3744E+02
    -20.974  0.1878E+02  0.4203E+02
    -20.866  0.3171E+02  0.4743E+02
    -20.758  0.2402E+02  0.5260E+02
    -20.650  0.3366E+02  0.5764E+02
    -20.542  0.9286E+01  0.5900E+02
    -20.434  0.3695E+02  0.6400E+02
    -20.326  0.1848E+02  0.6800E+02
    -20.218  0.3699E+02  0.7400E+02
    -20.109  0.7610E+02  0.8223E+02
    -20.001  0.1828E+03  0.1038E+03
    -19.893  0.9644E+02  0.1264E+03
    -19.785  0.5120E+02  0.1335E+03
    -19.677  0.1848E+02  0.1380E+03
    -19.569  0.0000E+00  0.1380E+03
    -19.461  0.0000E+00  0.1380E+03
    -19.352  0.0000E+00  0.1380E+03
    -19.244  0.1849E+02  0.1400E+03
    -19.136  0.0000E+00  0.1400E+03
    -19.028  0.3382E-06  0.1400E+03
    -18.920  0.1900E+02  0.1421E+03
    -18.812  0.0000E+00  0.1440E+03
    -18.704  0.0000E+00  0.1440E+03
    -18.595  0.0000E+00  0.1440E+03
    -18.487  0.0000E+00  0.1440E+03
    -18.379  0.0000E+00  0.1440E+03
    -18.271  0.0000E+00  0.1440E+03
    -18.163  0.0000E+00  0.1440E+03
    -18.055  0.0000E+00  0.1440E+03
    -17.947  0.0000E+00  0.1440E+03
    -17.838  0.0000E+00  0.1440E+03
    -17.730  0.0000E+00  0.1440E+03
    -17.622  0.0000E+00  0.1440E+03
    -17.514  0.0000E+00  0.1440E+03
    -17.406  0.0000E+00  0.1440E+03
    -17.298  0.0000E+00  0.1440E+03
    -17.190  0.0000E+00  0.1440E+03
    -17.081  0.0000E+00  0.1440E+03
    -16.973  0.0000E+00  0.1440E+03
    -16.865  0.0000E+00  0.1440E+03
    -16.757  0.0000E+00  0.1440E+03
    -16.649  0.0000E+00  0.1440E+03
    -16.541  0.0000E+00  0.1440E+03
    -16.433  0.0000E+00  0.1440E+03
    -16.325  0.0000E+00  0.1440E+03
    -16.216  0.0000E+00  0.1440E+03
    -16.108  0.0000E+00  0.1440E+03
    -16.000  0.0000E+00  0.1440E+03
    -15.892  0.0000E+00  0.1440E+03
    -15.784  0.0000E+00  0.1440E+03
    -15.676  0.0000E+00  0.1440E+03
    -15.568  0.0000E+00  0.1440E+03
    -15.459  0.0000E+00  0.1440E+03
    -15.351  0.0000E+00  0.1440E+03
    -15.243  0.0000E+00  0.1440E+03
    -15.135  0.0000E+00  0.1440E+03
    -15.027  0.0000E+00  0.1440E+03
    -14.919  0.0000E+00  0.1440E+03
    -14.811  0.0000E+00  0.1440E+03
    -14.702  0.0000E+00  0.1440E+03
    -14.594  0.0000E+00  0.1440E+03
    -14.486  0.0000E+00  0.1440E+03
    -14.378  0.0000E+00  0.1440E+03
    -14.270  0.0000E+00  0.1440E+03
    -14.162  0.0000E+00  0.1440E+03
    -14.054  0.0000E+00  0.1440E+03
    -13.945  0.0000E+00  0.1440E+03
    -13.837  0.0000E+00  0.1440E+03
    -13.729  0.0000E+00  0.1440E+03
    -13.621  0.0000E+00  0.1440E+03
    -13.513  0.1983E-01  0.1440E+03
    -13.405  0.0000E+00  0.1460E+03
    -13.297  0.0000E+00  0.1460E+03
    -13.188  0.0000E+00  0.1460E+03
    -13.080  0.0000E+00  0.1460E+03
    -12.972  0.0000E+00  0.1460E+03
    -12.864  0.0000E+00  0.1460E+03
    -12.756  0.0000E+00  0.1460E+03
    -12.648  0.0000E+00  0.1460E+03
    -12.540  0.0000E+00  0.1460E+03
    -12.432  0.0000E+00  0.1460E+03
    -12.323  0.0000E+00  0.1460E+03
    -12.215  0.1795E+02  0.1479E+03
    -12.107  0.0000E+00  0.1480E+03
    -11.999  0.0000E+00  0.1480E+03
    -11.891  0.0000E+00  0.1480E+03
    -11.783  0.0000E+00  0.1480E+03
    -11.675  0.1767E+02  0.1499E+03
    -11.566  0.1849E+02  0.1520E+03
    -11.458  0.1371E+01  0.1521E+03
    -11.350  0.1849E+02  0.1560E+03
    -11.242  0.3687E+02  0.1600E+03
    -11.134  0.0000E+00  0.1600E+03
    -11.026  0.1080E-08  0.1600E+03
    -10.918  0.1850E+02  0.1620E+03
    -10.809  0.0000E+00  0.1640E+03
    -10.701  0.1829E+02  0.1660E+03
    -10.593  0.3702E+02  0.1700E+03
    -10.485  0.3679E+02  0.1760E+03
    -10.377  0.1849E+02  0.1780E+03
    -10.269  0.3688E+02  0.1820E+03
    -10.161  0.0000E+00  0.1820E+03
    -10.052  0.1849E+02  0.1840E+03
     -9.944  0.0000E+00  0.1840E+03
     -9.836  0.1370E+02  0.1855E+03
     -9.728  0.2197E+02  0.1884E+03
     -9.620  0.2737E-04  0.1920E+03
     -9.512  0.3699E+02  0.1960E+03
     -9.404  0.1849E+02  0.1980E+03
     -9.295  0.2053E-14  0.1980E+03
     -9.187  0.1851E+02  0.2000E+03
     -9.079  0.1845E+02  0.2040E+03
     -8.971  0.0000E+00  0.2040E+03
     -8.863  0.0000E+00  0.2040E+03
     -8.755  0.1174E-09  0.2040E+03
     -8.647  0.3699E+02  0.2080E+03
     -8.539  0.3699E+02  0.2120E+03
     -8.430  0.3761E+02  0.2161E+03
     -8.322  0.4164E+02  0.2225E+03
     -8.214  0.3478E+02  0.2298E+03
     -8.106  0.7261E+02  0.2399E+03
     -7.998  0.3710E+02  0.2440E+03
     -7.890  0.5862E+02  0.2523E+03
     -7.782  0.6477E+02  0.2630E+03
     -7.673  0.3699E+02  0.2700E+03
     -7.565  0.3697E+02  0.2740E+03
     -7.457  0.2505E+02  0.2767E+03
     -7.349  0.3656E+02  0.2820E+03
     -7.241  0.2343E+02  0.2845E+03
     -7.133  0.1846E+02  0.2880E+03
     -7.025  0.1254E+02  0.2894E+03
     -6.916  0.0000E+00  0.2900E+03
     -6.808  0.0000E+00  0.2900E+03
     -6.700  0.0000E+00  0.2900E+03
     -6.592  0.0000E+00  0.2900E+03
     -6.484  0.1849E+02  0.2920E+03
     -6.376  0.1218E+02  0.2933E+03
     -6.268  0.3451E+02  0.2977E+03
     -6.159  0.5700E+00  0.2981E+03
     -6.051  0.4060E+02  0.3044E+03
     -5.943  0.4460E+02  0.3108E+03
     -5.835  0.9112E+02  0.3219E+03
     -5.727  0.5552E+02  0.3280E+03
     -5.619  0.3676E+02  0.3360E+03
     -5.511  0.5154E+02  0.3416E+03
     -5.402  0.1858E+02  0.3440E+03
     -5.294  0.6191E-12  0.3460E+03
     -5.186  0.3774E+02  0.3501E+03
     -5.078  0.3484E+02  0.3558E+03
     -4.970  0.5845E+02  0.3643E+03
     -4.862  0.7527E+02  0.3741E+03
     -4.754  0.3005E+02  0.3792E+03
     -4.646  0.4640E+02  0.3870E+03
     -4.537  0.1280E+03  0.4018E+03
     -4.429  0.1088E+03  0.4178E+03
     -4.321  0.1171E+03  0.4347E+03
     -4.213  0.1134E+03  0.4503E+03
     -4.105  0.8077E+02  0.4627E+03
     -3.997  0.9197E+02  0.4759E+03
     -3.889  0.1111E+03  0.4900E+03
     -3.780  0.7989E+02  0.5026E+03
     -3.672  0.8947E+02  0.5137E+03
     -3.564  0.4825E+02  0.5212E+03
     -3.456  0.3699E+02  0.5260E+03
     -3.348  0.1850E+02  0.5280E+03
     -3.240  0.5582E+02  0.5340E+03
     -3.132  0.4158E+02  0.5405E+03
     -3.023  0.4977E+02  0.5474E+03
     -2.915  0.1013E+03  0.5610E+03
     -2.807  0.5521E+02  0.5700E+03
     -2.699  0.1965E+02  0.5741E+03
     -2.591  0.1849E+02  0.5780E+03
     -2.483  0.1849E+02  0.5800E+03
     -2.375  0.6932E-03  0.5800E+03
     -2.266  0.0000E+00  0.5820E+03
     -2.158  0.0000E+00  0.5820E+03
     -2.050  0.0000E+00  0.5820E+03
     -1.942  0.0000E+00  0.5820E+03
     -1.834  0.0000E+00  0.5820E+03
     -1.726  0.0000E+00  0.5820E+03
     -1.618  0.0000E+00  0.5820E+03
     -1.509  0.0000E+00  0.5820E+03
     -1.401  0.0000E+00  0.5820E+03
     -1.293  0.0000E+00  0.5820E+03
     -1.185  0.0000E+00  0.5820E+03
     -1.077  0.0000E+00  0.5820E+03
     -0.969  0.0000E+00  0.5820E+03
     -0.861  0.0000E+00  0.5820E+03
     -0.753  0.0000E+00  0.5820E+03
     -0.644  0.0000E+00  0.5820E+03
     -0.536  0.0000E+00  0.5820E+03
     -0.428  0.0000E+00  0.5820E+03
     -0.320  0.0000E+00  0.5820E+03
     -0.212  0.0000E+00  0.5820E+03
     -0.104  0.0000E+00  0.5820E+03
      0.004  0.0000E+00  0.5820E+03
      0.113  0.0000E+00  0.5820E+03
      0.221  0.0000E+00  0.5820E+03
      0.329  0.0000E+00  0.5820E+03
      0.437  0.0000E+00  0.5820E+03
      0.545  0.0000E+00  0.5820E+03
      0.653  0.0000E+00  0.5820E+03
      0.761  0.0000E+00  0.5820E+03
      0.870  0.0000E+00  0.5820E+03
      0.978  0.0000E+00  0.5820E+03
      1.086  0.0000E+00  0.5820E+03
      1.194  0.0000E+00  0.5820E+03
      1.302  0.0000E+00  0.5820E+03
      1.410  0.0000E+00  0.5820E+03
      1.518  0.0000E+00  0.5820E+03
      1.627  0.0000E+00  0.5820E+03
      1.735  0.0000E+00  0.5820E+03
      1.843  0.0000E+00  0.5820E+03
      1.951  0.0000E+00  0.5820E+03
      2.059  0.0000E+00  0.5820E+03
      2.167  0.0000E+00  0.5820E+03
      2.275  0.0000E+00  0.5820E+03
      2.384  0.0000E+00  0.5820E+03
      2.492  0.0000E+00  0.5820E+03
      2.600  0.0000E+00  0.5820E+03
      2.708  0.0000E+00  0.5820E+03
      2.816  0.0000E+00  0.5820E+03
      2.924  0.1849E+02  0.5840E+03
      3.032  0.0000E+00  0.5840E+03
      3.140  0.0000E+00  0.5840E+03
      3.249  0.0000E+00  0.5840E+03
      3.357  0.0000E+00  0.5840E+03
      3.465  0.0000E+00  0.5840E+03
      3.573  0.0000E+00  0.5840E+03
      3.681  0.1914E-04  0.5840E+03
      3.789  0.2133E+02  0.5863E+03
      3.897  0.0000E+00  0.5880E+03
      4.006  0.1801E+02  0.5899E+03
      4.114  0.1027E-14  0.5900E+03
      4.222  0.1849E+02  0.5920E+03
      4.330  0.3172E+02  0.5954E+03
      4.438  0.3098E+01  0.5963E+03
      4.546  0.0000E+00  0.5980E+03
      4.654  0.1849E+02  0.6000E+03
      4.763  0.1849E+02  0.6020E+03
      4.871  0.0000E+00  0.6020E+03
      4.979  0.2819E+02  0.6050E+03
      5.087  0.3787E+02  0.6101E+03
      5.195  0.6520E+02  0.6191E+03
      5.303  0.3698E+02  0.6240E+03
      5.411  0.2857E-09  0.6240E+03
      5.520  0.1849E+02  0.6260E+03
      5.628  0.1088E-01  0.6260E+03
      5.736  0.9383E-03  0.6280E+03
      5.844  0.1804E+02  0.6320E+03
      5.952  0.2033E+01  0.6342E+03
      6.060  0.1850E+02  0.6380E+03
      6.168  0.5393E+02  0.6458E+03
      6.277  0.6389E+02  0.6529E+03
      6.385  0.7366E+02  0.6620E+03
      6.493  0.2680E+02  0.6669E+03
      6.601  0.9523E+02  0.6803E+03
      6.709  0.1079E+03  0.6937E+03
      6.817  0.5548E+02  0.7020E+03
      6.925  0.1849E+02  0.7040E+03
      7.033  0.0000E+00  0.7040E+03
      7.142  0.0000E+00  0.7040E+03
      7.250  0.0000E+00  0.7040E+03
      7.358  0.0000E+00  0.7040E+03
      7.466  0.0000E+00  0.7040E+03
      7.574  0.0000E+00  0.7040E+03
      7.682  0.0000E+00  0.7040E+03
      7.790  0.0000E+00  0.7040E+03
      7.899  0.0000E+00  0.7040E+03
      8.007  0.0000E+00  0.7040E+03
      8.115  0.0000E+00  0.7040E+03
      8.223  0.0000E+00  0.7040E+03
      8.331  0.0000E+00  0.7040E+03
