       N       E                     dE             d eps       ncg     rms          rms(c)
DAV:   1     0.441892088280E+04    0.44189E+04   -0.24491E+05   760   0.116E+03
DAV:   2    -0.419905250968E+03   -0.48388E+04   -0.47397E+04   864   0.325E+02
DAV:   3    -0.976395991889E+03   -0.55649E+03   -0.55437E+03   816   0.119E+02
DAV:   4    -0.989449058794E+03   -0.13053E+02   -0.13012E+02   832   0.196E+01
DAV:   5    -0.989854384020E+03   -0.40533E+00   -0.40488E+00   832   0.312E+00    0.856E+01
DAV:   6    -0.873855617817E+03    0.11600E+03   -0.50753E+02   800   0.353E+01    0.396E+01
DAV:   7    -0.873298058196E+03    0.55756E+00   -0.16003E+01   920   0.592E+00    0.151E+01
DAV:   8    -0.872804457115E+03    0.49360E+00   -0.10891E+00   816   0.224E+00    0.598E+00
DAV:   9    -0.872658364423E+03    0.14609E+00   -0.44887E-01   824   0.145E+00    0.103E+00
DAV:  10    -0.872660622725E+03   -0.22583E-02   -0.83866E-02   816   0.632E-01    0.656E-01
DAV:  11    -0.872661598861E+03   -0.97614E-03   -0.19750E-02   784   0.297E-01    0.291E-01
DAV:  12    -0.872668118723E+03   -0.65199E-02   -0.72543E-03   784   0.225E-01    0.147E-01
DAV:  13    -0.872678646121E+03   -0.10527E-01   -0.45298E-03   808   0.195E-01    0.176E-01
DAV:  14    -0.872686694945E+03   -0.80488E-02   -0.26445E-03   800   0.129E-01    0.568E-02
DAV:  15    -0.872688536957E+03   -0.18420E-02   -0.54191E-04   832   0.550E-02    0.546E-02
DAV:  16    -0.872689014274E+03   -0.47732E-03   -0.16376E-04   824   0.276E-02    0.399E-02
DAV:  17    -0.872689201046E+03   -0.18677E-03   -0.70039E-05   808   0.159E-02    0.191E-02
DAV:  18    -0.872689494265E+03   -0.29322E-03   -0.28812E-05   792   0.968E-03    0.791E-03
DAV:  19    -0.872689531322E+03   -0.37058E-04   -0.90168E-06   760   0.742E-03    0.624E-03
DAV:  20    -0.872689548739E+03   -0.17417E-04   -0.29373E-06   608   0.353E-03    0.339E-03
DAV:  21    -0.872689562176E+03   -0.13437E-04   -0.11703E-06   544   0.214E-03    0.180E-03
DAV:  22    -0.872689565939E+03   -0.37636E-05   -0.94412E-07   520   0.223E-03    0.931E-04
DAV:  23    -0.872689566245E+03   -0.30606E-06   -0.21613E-07   520   0.933E-04
   1 F= -.88270710E+03 E0= -.88270710E+03  d E =-.738938E-52
