 vasp.5.4.1 05Feb16 (build Feb 08 2018 09:21:51) complex                        
  
 executed on             LinuxIFC date 2019.11.13  15:47:55
 running on   48 total cores
 distrk:  each k-point on   48 cores,    1 groups
 distr:  one band on NCORES_PER_BAND=   6 cores,    8 groups


--------------------------------------------------------------------------------------------------------


 INCAR:
 POTCAR:    PAW_PBE Al 04Jan2001                  
 POTCAR:    PAW_PBE C 08Apr2002                   
 POTCAR:    PAW_PBE H 15Jun2001                   
 POTCAR:    PAW_PBE O 08Apr2002                   
 POTCAR:    PAW_PBE Si 05Jan2001                  
 POTCAR:    PAW_PBE Al 04Jan2001                  
   VRHFIN =Al: s2p1                                                             
   LEXCH  = PE                                                                  
   EATOM  =    53.5387 eV,    3.9350 Ry                                         
                                                                                
   TITEL  = PAW_PBE Al 04Jan2001                                                
   LULTRA =        F    use ultrasoft PP ?                                      
   IUNSCR =        1    unscreen: 0-lin 1-nonlin 2-no                           
   RPACOR =    1.500    partial core radius                                     
   POMASS =   26.981; ZVAL   =    3.000    mass and valenz                      
   RCORE  =    1.900    outmost cutoff radius                                   
   RWIGS  =    2.650; RWIGS  =    1.402    wigner-seitz radius (au A)           
   ENMAX  =  240.300; ENMIN  =  180.225 eV                                      
   ICORE  =        2    local potential                                         
   LCOR   =        T    correct aug charges                                     
   LPAW   =        T    paw PP                                                  
   EAUG   =  291.052                                                            
   DEXC   =    0.000                                                            
   RMAX   =    1.939    core radius for proj-oper                               
   RAUG   =    1.300    factor for augmentation sphere                          
   RDEP   =    1.966    radius for radial grids                                 
   RDEPT  =    1.856    core radius for aug-charge                              
                                                                                
   Atomic configuration                                                         
    6 entries                                                                   
     n  l   j            E        occ.                                          
     1  0  0.50     -1511.1048   2.0000                                         
     2  0  0.50      -108.1629   2.0000                                         
     2  1  1.50       -69.6402   6.0000                                         
     3  0  0.50        -7.7528   2.0000                                         
     3  1  1.50        -2.7121   1.0000                                         
     3  2  2.50        -2.7212   0.0000                                         
   Description                                                                  
     l       E           TYP  RCUT    TYP  RCUT                                 
     0     -7.7528455     23  1.900                                             
     0     -3.3096929     23  1.900                                             
     1     -2.7120682     23  1.900                                             
     1     13.6058260     23  1.900                                             
     2     -2.7211652      7  1.900                                             
  local pseudopotential read in
  partial core-charges read in
  partial kinetic energy density read in
  atomic valenz-charges read in
  non local Contribution for L=           0  read in
    real space projection operators read in
  non local Contribution for L=           0  read in
    real space projection operators read in
  non local Contribution for L=           1  read in
    real space projection operators read in
  non local Contribution for L=           1  read in
    real space projection operators read in
    PAW grid and wavefunctions read in
 
   number of l-projection  operators is LMAX  =           4
   number of lm-projection operators is LMMAX =           8
 
 POTCAR:    PAW_PBE C 08Apr2002                   
   VRHFIN =C: s2p2                                                              
   LEXCH  = PE                                                                  
   EATOM  =   147.1560 eV,   10.8157 Ry                                         
                                                                                
   TITEL  = PAW_PBE C 08Apr2002                                                 
   LULTRA =        F    use ultrasoft PP ?                                      
   IUNSCR =        1    unscreen: 0-lin 1-nonlin 2-no                           
   RPACOR =    1.200    partial core radius                                     
   POMASS =   12.011; ZVAL   =    4.000    mass and valenz                      
   RCORE  =    1.500    outmost cutoff radius                                   
   RWIGS  =    1.630; RWIGS  =    0.863    wigner-seitz radius (au A)           
   ENMAX  =  400.000; ENMIN  =  300.000 eV                                      
   ICORE  =        2    local potential                                         
   LCOR   =        T    correct aug charges                                     
   LPAW   =        T    paw PP                                                  
   EAUG   =  644.873                                                            
   DEXC   =    0.000                                                            
   RMAX   =    1.529    core radius for proj-oper                               
   RAUG   =    1.300    factor for augmentation sphere                          
   RDEP   =    1.501    radius for radial grids                                 
   RDEPT  =    1.300    core radius for aug-charge                              
                                                                                
   Atomic configuration                                                         
    4 entries                                                                   
     n  l   j            E        occ.                                          
     1  0  0.50      -273.3789   2.0000                                         
     2  0  0.50       -13.7508   2.0000                                         
     2  1  0.50        -5.2854   2.0000                                         
     3  2  1.50        -5.4423   0.0000                                         
   Description                                                                  
     l       E           TYP  RCUT    TYP  RCUT                                 
     0    -13.7508458     23  1.200                                             
     0     -8.2022199     23  1.200                                             
     1     -5.2854383     23  1.500                                             
     1     34.0145650     23  1.500                                             
     2     -5.4423304      7  1.500                                             
  local pseudopotential read in
  partial core-charges read in
  partial kinetic energy density read in
  atomic valenz-charges read in
  non local Contribution for L=           0  read in
    real space projection operators read in
  non local Contribution for L=           0  read in
    real space projection operators read in
  non local Contribution for L=           1  read in
    real space projection operators read in
  non local Contribution for L=           1  read in
    real space projection operators read in
    PAW grid and wavefunctions read in
 
   number of l-projection  operators is LMAX  =           4
   number of lm-projection operators is LMMAX =           8
 
 POTCAR:    PAW_PBE H 15Jun2001                   
   VRHFIN =H: ultrasoft test                                                    
   LEXCH  = PE                                                                  
   EATOM  =    12.4884 eV,    0.9179 Ry                                         
                                                                                
   TITEL  = PAW_PBE H 15Jun2001                                                 
   LULTRA =        F    use ultrasoft PP ?                                      
   IUNSCR =        0    unscreen: 0-lin 1-nonlin 2-no                           
   RPACOR =    0.000    partial core radius                                     
   POMASS =    1.000; ZVAL   =    1.000    mass and valenz                      
   RCORE  =    1.100    outmost cutoff radius                                   
   RWIGS  =    0.700; RWIGS  =    0.370    wigner-seitz radius (au A)           
   ENMAX  =  250.000; ENMIN  =  200.000 eV                                      
   RCLOC  =    0.701    cutoff for local pot                                    
   LCOR   =        T    correct aug charges                                     
   LPAW   =        T    paw PP                                                  
   EAUG   =  400.000                                                            
   RMAX   =    1.123    core radius for proj-oper                               
   RAUG   =    1.200    factor for augmentation sphere                          
   RDEP   =    1.112    radius for radial grids                                 
   RDEPT  =    0.926    core radius for aug-charge                              
                                                                                
   Atomic configuration                                                         
    2 entries                                                                   
     n  l   j            E        occ.                                          
     1  0  0.50        -6.4927   1.0000                                         
     2  1  0.50        -3.4015   0.0000                                         
   Description                                                                  
     l       E           TYP  RCUT    TYP  RCUT                                 
     0     -6.4927494     23  1.100                                             
     0      6.8029130     23  1.100                                             
     1     -4.0817478     23  1.100                                             
  local pseudopotential read in
  atomic valenz-charges read in
  non local Contribution for L=           0  read in
    real space projection operators read in
  non local Contribution for L=           0  read in
    real space projection operators read in
  non local Contribution for L=           1  read in
    real space projection operators read in
    PAW grid and wavefunctions read in
 
   number of l-projection  operators is LMAX  =           3
   number of lm-projection operators is LMMAX =           5
 
 POTCAR:    PAW_PBE O 08Apr2002                   
   VRHFIN =O: s2p4                                                              
   LEXCH  = PE                                                                  
   EATOM  =   432.3788 eV,   31.7789 Ry                                         
                                                                                
   TITEL  = PAW_PBE O 08Apr2002                                                 
   LULTRA =        F    use ultrasoft PP ?                                      
   IUNSCR =        1    unscreen: 0-lin 1-nonlin 2-no                           
   RPACOR =    1.200    partial core radius                                     
   POMASS =   16.000; ZVAL   =    6.000    mass and valenz                      
   RCORE  =    1.520    outmost cutoff radius                                   
   RWIGS  =    1.550; RWIGS  =    0.820    wigner-seitz radius (au A)           
   ENMAX  =  400.000; ENMIN  =  300.000 eV                                      
   ICORE  =        2    local potential                                         
   LCOR   =        T    correct aug charges                                     
   LPAW   =        T    paw PP                                                  
   EAUG   =  605.392                                                            
   DEXC   =    0.000                                                            
   RMAX   =    1.553    core radius for proj-oper                               
   RAUG   =    1.300    factor for augmentation sphere                          
   RDEP   =    1.550    radius for radial grids                                 
   RDEPT  =    1.329    core radius for aug-charge                              
                                                                                
   Atomic configuration                                                         
    4 entries                                                                   
     n  l   j            E        occ.                                          
     1  0  0.50      -514.6923   2.0000                                         
     2  0  0.50       -23.9615   2.0000                                         
     2  1  0.50        -9.0305   4.0000                                         
     3  2  1.50        -9.5241   0.0000                                         
   Description                                                                  
     l       E           TYP  RCUT    TYP  RCUT                                 
     0    -23.9615318     23  1.200                                             
     0     -9.5240782     23  1.200                                             
     1     -9.0304911     23  1.520                                             
     1      8.1634956     23  1.520                                             
     2     -9.5240782      7  1.500                                             
  local pseudopotential read in
  partial core-charges read in
  partial kinetic energy density read in
  kinetic energy density of atom read in
  atomic valenz-charges read in
  non local Contribution for L=           0  read in
    real space projection operators read in
  non local Contribution for L=           0  read in
    real space projection operators read in
  non local Contribution for L=           1  read in
    real space projection operators read in
  non local Contribution for L=           1  read in
    real space projection operators read in
    PAW grid and wavefunctions read in
 
   number of l-projection  operators is LMAX  =           4
   number of lm-projection operators is LMMAX =           8
 
 POTCAR:    PAW_PBE Si 05Jan2001                  
   VRHFIN =Si: s2p2                                                             
   LEXCH  = PE                                                                  
   EATOM  =   103.0669 eV,    7.5752 Ry                                         
                                                                                
   TITEL  = PAW_PBE Si 05Jan2001                                                
   LULTRA =        F    use ultrasoft PP ?                                      
   IUNSCR =        1    unscreen: 0-lin 1-nonlin 2-no                           
   RPACOR =    1.500    partial core radius                                     
   POMASS =   28.085; ZVAL   =    4.000    mass and valenz                      
   RCORE  =    1.900    outmost cutoff radius                                   
   RWIGS  =    2.480; RWIGS  =    1.312    wigner-seitz radius (au A)           
   ENMAX  =  245.345; ENMIN  =  184.009 eV                                      
   ICORE  =        2    local potential                                         
   LCOR   =        T    correct aug charges                                     
   LPAW   =        T    paw PP                                                  
   EAUG   =  322.069                                                            
   DEXC   =    0.000                                                            
   RMAX   =    1.950    core radius for proj-oper                               
   RAUG   =    1.300    factor for augmentation sphere                          
   RDEP   =    1.993    radius for radial grids                                 
   RDEPT  =    1.837    core radius for aug-charge                              
                                                                                
   Atomic configuration                                                         
    6 entries                                                                   
     n  l   j            E        occ.                                          
     1  0  0.50     -1785.8828   2.0000                                         
     2  0  0.50      -139.4969   2.0000                                         
     2  1  1.50       -95.5546   6.0000                                         
     3  0  0.50       -10.8127   2.0000                                         
     3  1  0.50        -4.0811   2.0000                                         
     3  2  1.50        -4.0817   0.0000                                         
   Description                                                                  
     l       E           TYP  RCUT    TYP  RCUT                                 
     0    -10.8127223     23  1.900                                             
     0     -7.6451159     23  1.900                                             
     1     -4.0811372     23  1.900                                             
     1      2.4879257     23  1.900                                             
     2     -4.0817478      7  1.900                                             
  local pseudopotential read in
  partial core-charges read in
  partial kinetic energy density read in
  atomic valenz-charges read in
  non local Contribution for L=           0  read in
    real space projection operators read in
  non local Contribution for L=           0  read in
    real space projection operators read in
  non local Contribution for L=           1  read in
    real space projection operators read in
  non local Contribution for L=           1  read in
    real space projection operators read in
    PAW grid and wavefunctions read in
 
   number of l-projection  operators is LMAX  =           4
   number of lm-projection operators is LMMAX =           8
 
 Optimization of the real space projectors (new method)

 maximal supplied QI-value         = 19.84
 optimisation between [QCUT,QGAM] = [ 10.12, 20.44] = [ 28.68,116.96] Ry 
 Optimized for a Real-space Cutoff    1.23 Angstroem

   l    n(q)    QCUT    max X(q) W(low)/X(q) W(high)/X(q)  e(spline) 
   0      7    10.119   176.870    0.49E-04    0.18E-03    0.39E-07
   0      7    10.119   105.762    0.46E-04    0.18E-03    0.38E-07
   1      7    10.119    55.370    0.30E-03    0.37E-03    0.12E-06
   1      7    10.119    20.208    0.27E-03    0.35E-03    0.11E-06
 Optimization of the real space projectors (new method)

 maximal supplied QI-value         = 25.13
 optimisation between [QCUT,QGAM] = [ 10.05, 20.36] = [ 28.30,116.06] Ry 
 Optimized for a Real-space Cutoff    1.30 Angstroem

   l    n(q)    QCUT    max X(q) W(low)/X(q) W(high)/X(q)  e(spline) 
   0      8    10.053   115.676    0.49E-03    0.72E-03    0.18E-06
   0      8    10.053    87.132    0.49E-03    0.71E-03    0.18E-06
   1      7    10.053     4.429    0.32E-03    0.31E-03    0.18E-06
   1      7    10.053     2.733    0.23E-03    0.19E-03    0.20E-06
 Optimization of the real space projectors (new method)

 maximal supplied QI-value         = 34.20
 optimisation between [QCUT,QGAM] = [  9.92, 20.18] = [ 27.55,114.04] Ry 
 Optimized for a Real-space Cutoff    1.26 Angstroem

   l    n(q)    QCUT    max X(q) W(low)/X(q) W(high)/X(q)  e(spline) 
   0      8     9.919    19.460    0.50E-03    0.23E-03    0.29E-06
   0      8     9.919    12.209    0.48E-03    0.23E-03    0.28E-06
   1      7     9.919     4.655    0.17E-03    0.75E-03    0.30E-06
 Optimization of the real space projectors (new method)

 maximal supplied QI-value         = 24.76
 optimisation between [QCUT,QGAM] = [ 10.15, 20.30] = [ 28.85,115.39] Ry 
 Optimized for a Real-space Cutoff    1.38 Angstroem

   l    n(q)    QCUT    max X(q) W(low)/X(q) W(high)/X(q)  e(spline) 
   0      8    10.150    20.381    0.22E-03    0.32E-03    0.29E-06
   0      8    10.150    15.268    0.23E-03    0.35E-03    0.30E-06
   1      8    10.150     5.964    0.46E-03    0.53E-03    0.21E-06
   1      8    10.150     5.382    0.38E-03    0.45E-03    0.19E-06
 Optimization of the real space projectors (new method)

 maximal supplied QI-value         = 19.84
 optimisation between [QCUT,QGAM] = [ 10.12, 20.44] = [ 28.68,116.96] Ry 
 Optimized for a Real-space Cutoff    1.23 Angstroem

   l    n(q)    QCUT    max X(q) W(low)/X(q) W(high)/X(q)  e(spline) 
   0      7    10.119   159.560    0.56E-04    0.22E-03    0.45E-07
   0      7    10.119   115.863    0.56E-04    0.21E-03    0.45E-07
   1      7    10.119    88.339    0.34E-03    0.49E-03    0.11E-06
   1      7    10.119    48.592    0.33E-03    0.48E-03    0.11E-06
  PAW_PBE Al 04Jan2001                  :
 energy of atom  1       EATOM=  -53.5387
 kinetic energy error for atom=    0.0005 (will be added to EATOM!!)
  PAW_PBE C 08Apr2002                   :
 energy of atom  2       EATOM= -147.1560
 kinetic energy error for atom=    0.0288 (will be added to EATOM!!)
  PAW_PBE H 15Jun2001                   :
 energy of atom  3       EATOM=  -12.4884
 kinetic energy error for atom=    0.0098 (will be added to EATOM!!)
  PAW_PBE O 08Apr2002                   :
 energy of atom  4       EATOM= -432.3788
 kinetic energy error for atom=    0.1156 (will be added to EATOM!!)
  PAW_PBE Si 05Jan2001                  :
 energy of atom  5       EATOM= -103.0669
 kinetic energy error for atom=    0.0012 (will be added to EATOM!!)
 
 
 POSCAR: Al  C  H  O Si                          
  positions in cartesian coordinates
  No initial velocities read in
 exchange correlation table for  LEXCH =        8
   RHO(1)=    0.500       N(1)  =     2000
   RHO(2)=  100.500       N(2)  =     4000
 


--------------------------------------------------------------------------------------------------------


 ion  position               nearest neighbor table
   1  0.557  0.667  0.565-  67 1.71  43 1.71  44 1.72  72 1.88 103 3.13 110 3.15  95 3.16  98 3.26

   2  0.780  0.767  0.499-   5 1.09   4 1.10   3 1.10  72 1.48
   3  0.811  0.790  0.430-   2 1.10
   4  0.838  0.753  0.541-   2 1.10
   5  0.765  0.831  0.528-   2 1.09
   6  0.015  0.331  0.833- 104 1.62  88 1.62
   7  0.210  0.425  0.537-  82 1.61  95 1.62
   8  0.547  0.095  0.203- 111 1.62 106 1.62
   9  0.876  0.759  0.867-  79 1.62 105 1.62
  10  0.448  0.546  0.802-  83 1.62 103 1.63
  11  0.122  0.878  0.133-  84 1.62  86 1.62
  12  0.090  0.545  0.800-  94 1.62  88 1.62
  13  0.429  0.216  0.460-  99 1.61 112 1.62
  14  0.763  0.882  0.137-  97 1.62  81 1.62
  15  0.213  0.786  0.535- 100 1.62  92 1.63
  16  0.900  0.100  0.124-  81 1.63  90 1.63
  17  0.237  0.119  0.866- 101 1.62 107 1.62
  18  0.875  0.436  0.450-  93 1.61  91 1.63
  19  0.433  0.872  0.542-  92 1.62 110 1.64
  20  0.982  0.317  0.164-  80 1.62  90 1.62
  21  0.651  0.008  0.505-  89 1.61 110 1.63
  22  0.999  0.651  0.500-  93 1.62 100 1.63
  23  0.332  0.313  0.166- 108 1.62  87 1.62
  24  0.982  0.664  0.163-  96 1.62  84 1.62
  25  0.337  0.337  0.501-  99 1.61  95 1.64
  26  0.684  0.018  0.168- 106 1.62  81 1.62
  27  0.663  0.980  0.836- 109 1.62  78 1.63
  28  0.999  0.346  0.501-  91 1.61  82 1.62
  29  0.784  0.217  0.464-  91 1.61  89 1.62
  30  0.335  0.020  0.164- 111 1.62  86 1.62
  31  0.907  0.453  0.207-  96 1.61  80 1.62
  32  0.311  0.332  0.833- 107 1.62  83 1.62
  33  0.449  0.903  0.801-  85 1.62  78 1.62
  34  0.070  0.664  0.666- 100 1.63  94 1.63
  35  0.666  0.071  0.335- 106 1.63  89 1.63
  36  0.997  0.741  0.999-  84 1.63  79 1.63
  37  0.591  0.929  0.669-  78 1.62 110 1.63
  38  0.928  0.602  0.332-  93 1.63  96 1.63
  39  0.258  0.258  0.999-  87 1.63 107 1.63
  40  0.408  0.342  0.333-  99 1.63 108 1.63
  41  0.782  0.560  0.464-  98 1.61  93 1.63
  42  0.737  0.996  0.002-  81 1.62 109 1.63
  43  0.575  0.794  0.533- 110 1.59   1 1.71
  44  0.597  0.663  0.673- 103 1.60   1 1.72
  45  0.257  0.999  0.999-  86 1.62 101 1.63
  46  0.067  0.407  0.667-  82 1.63  88 1.63
  47  0.400  0.066  0.333- 111 1.63 112 1.63
  48  0.333  0.406  0.667-  83 1.63  95 1.64
  49  0.745  0.743  0.004-  97 1.62 105 1.63
  50  0.547  0.452  0.197- 102 1.62 108 1.63
  51  0.876  0.118  0.869- 104 1.62 109 1.62
  52  0.331  0.927  0.667-  92 1.63  85 1.63
  53  0.558  0.438  0.465-  98 1.61  99 1.65
  54  0.665  0.587  0.332-  98 1.61 102 1.64
  55  0.932  0.327  0.332-  91 1.63  80 1.63
  56  0.348  0.002  0.502- 112 1.62  92 1.63
  57  0.313  0.980  0.833- 101 1.62  85 1.62
  58  0.903  0.802  0.129-  97 1.63  84 1.63
  59  0.231  0.764  0.790-  94 1.63  85 1.63
  60  0.119  0.239  0.132-  87 1.62  90 1.62
  61  0.564  0.135  0.454- 112 1.63  89 1.63
  62  0.230  0.466  0.788-  88 1.63  83 1.63
  63  0.195  0.097  0.124-  86 1.63  87 1.63
  64  0.000  0.261  0.999-  90 1.62 104 1.63
  65  0.096  0.900  0.875-  79 1.63 101 1.63
  66  0.799  0.899  0.877- 109 1.63 105 1.63
  67  0.432  0.555  0.532-  95 1.60   1 1.71
  68  0.530  0.765  0.791-  78 1.63 103 1.64
  69  0.766  0.530  0.208- 102 1.63  96 1.63
  70  0.130  0.565  0.541- 100 1.63  82 1.64
  71  0.468  0.234  0.215- 108 1.63 111 1.63
  72  0.670  0.661  0.497-   2 1.48  98 1.70   1 1.88
  73  0.766  0.234  0.211-  80 1.63 106 1.63
  74  0.659  0.681  0.844- 105 1.61 103 1.63
  75  0.015  0.684  0.833-  79 1.62  94 1.62
  76  0.095  0.195  0.876- 104 1.63 107 1.63
  77  0.687  0.668  0.169- 102 1.62  97 1.63
  78  0.558  0.893  0.773-  33 1.62  37 1.62  68 1.63  27 1.63 109 3.10  85 3.12 110 3.14
  79  0.997  0.771  0.894-   9 1.62  75 1.62  36 1.63  65 1.63  94 3.10 105 3.11 101 3.13
  80  0.896  0.332  0.229-  20 1.62  31 1.62  55 1.63  73 1.63  90 3.09  91 3.09 106 3.14
  81  0.771  0.999  0.107-  26 1.62  14 1.62  42 1.62  16 1.63 106 3.10  97 3.12 109 3.14  90 3.14

  82  0.102  0.437  0.562-   7 1.61  28 1.62  46 1.63  70 1.64  91 3.07  88 3.12 100 3.14  95 3.14

  83  0.331  0.438  0.771-  10 1.62  32 1.62  48 1.63  62 1.63 107 3.11 103 3.12  88 3.15  95 3.15

  84  0.001  0.772  0.105-  11 1.62  24 1.62  36 1.63  58 1.63  96 3.09  86 3.12  97 3.12
  85  0.331  0.893  0.772-  33 1.62  57 1.62  52 1.63  59 1.63 101 3.10  78 3.12  92 3.13  94 3.14

  86  0.227  0.999  0.104-  30 1.62  11 1.62  45 1.62  63 1.63 111 3.11  84 3.12  87 3.13 101 3.14

  87  0.226  0.226  0.105-  60 1.62  23 1.62  39 1.63  63 1.63 108 3.12  90 3.12  86 3.13 107 3.14

  88  0.101  0.437  0.772-   6 1.62  12 1.62  62 1.63  46 1.63 104 3.10  94 3.12  82 3.12  83 3.15

  89  0.665  0.107  0.439-  21 1.61  29 1.62  61 1.63  35 1.63 110 3.09 106 3.12  91 3.13 112 3.14

  90  1.000  0.228  0.104-  20 1.62  60 1.62  64 1.62  16 1.63  80 3.09  87 3.12 104 3.13  81 3.14

  91  0.898  0.331  0.436-  29 1.61  28 1.61  18 1.63  55 1.63  82 3.07  80 3.09  89 3.13
  92  0.332  0.897  0.562-  19 1.62  52 1.63  15 1.63  56 1.63 112 3.09  85 3.13 100 3.14 110 3.14

  93  0.898  0.562  0.436-  18 1.61  22 1.62  38 1.63  41 1.63 100 3.08  96 3.10  98 3.13
  94  0.102  0.665  0.772-  12 1.62  75 1.62  59 1.63  34 1.63  79 3.10  88 3.12 100 3.14  85 3.14

  95  0.330  0.434  0.560-  67 1.60   7 1.62  48 1.64  25 1.64  99 3.01  82 3.14  83 3.15   1 3.16

  96  0.896  0.562  0.227-  31 1.61  24 1.62  69 1.63  38 1.63  84 3.09  93 3.10 102 3.13
  97  0.775  0.774  0.109-  49 1.62  14 1.62  77 1.63  58 1.63 102 3.10  81 3.12  84 3.12
  98  0.667  0.554  0.436-  53 1.61  41 1.61  54 1.61  72 1.70  93 3.13  99 3.14 102 3.14   1 3.26

  99  0.432  0.333  0.439-  13 1.61  25 1.61  40 1.63  53 1.65  95 3.01  98 3.14 108 3.14
 100  0.104  0.666  0.561-  15 1.62  34 1.63  70 1.63  22 1.63  93 3.08  94 3.14  92 3.14  82 3.14

 101  0.225  0.999  0.894-  57 1.62  17 1.62  45 1.63  65 1.63  85 3.10 107 3.12  79 3.13  86 3.14

 102  0.666  0.559  0.226-  77 1.62  50 1.62  69 1.63  54 1.64  97 3.10 108 3.11  96 3.13  98 3.14

 103  0.559  0.664  0.775-  44 1.60  10 1.63  74 1.63  68 1.64 105 3.09  83 3.12   1 3.13
 104  0.997  0.226  0.894-  51 1.62   6 1.62  64 1.63  76 1.63  88 3.10  90 3.13 107 3.13 109 3.13

 105  0.769  0.771  0.897-  74 1.61   9 1.62  49 1.63  66 1.63 103 3.09  79 3.11 109 3.13
 106  0.666  0.105  0.230-   8 1.62  26 1.62  35 1.63  73 1.63  81 3.10  89 3.12 111 3.14  80 3.14

 107  0.225  0.226  0.894-  32 1.62  17 1.62  76 1.63  39 1.63  83 3.11 101 3.12 104 3.13  87 3.14

 108  0.438  0.334  0.228-  23 1.62  50 1.63  71 1.63  40 1.63 102 3.11  87 3.12  99 3.14
 109  0.768  0.998  0.896-  27 1.62  51 1.62  66 1.63  42 1.63  78 3.10 105 3.13 104 3.13  81 3.14

 110  0.562  0.898  0.562-  43 1.59  21 1.63  37 1.63  19 1.64  89 3.09  78 3.14  92 3.14   1 3.15

 111  0.437  0.104  0.229-  30 1.62   8 1.62  47 1.63  71 1.63 112 3.10  86 3.11 106 3.14
 112  0.435  0.104  0.437-  13 1.62  56 1.62  61 1.63  47 1.63  92 3.09 111 3.10  89 3.14
 
  LATTYP: Found a triclinic cell.
 ALAT       =    13.7322043366
 B/A-ratio  =     0.9994204432
 C/A-ratio  =     1.0843400083
 COS(alpha) =     0.0000550690
 COS(beta)  =     0.0002592819
 COS(gamma) =     0.4999019569
  
  Lattice vectors:
  
 A1 = (   6.8687391400, -11.8909148200,  -0.0018197300)
 A2 = (  -6.8608326700, -11.8862902600,  -0.0004082900)
 A3 = (   0.0015106500,  -0.0013072700, -14.8903784300)


Analysis of symmetry for initial positions (statically):
=====================================================================
 Subroutine PRICEL returns:
 Original cell was already a primitive cell.
 

 Routine SETGRP: Setting up the symmetry group for a 
 triclinic supercell.


 Subroutine GETGRP returns: Found  1 space group operations
 (whereof  1 operations were pure point group operations)
 out of a pool of  2 trial point group operations.


The static configuration has the point symmetry C_1 .


Analysis of symmetry for dynamics (positions and initial velocities):
=====================================================================
 Subroutine PRICEL returns:
 Original cell was already a primitive cell.
 

 Routine SETGRP: Setting up the symmetry group for a 
 triclinic supercell.


 Subroutine GETGRP returns: Found  1 space group operations
 (whereof  1 operations were pure point group operations)
 out of a pool of  2 trial point group operations.


The dynamic configuration has the point symmetry C_1 .


 Subroutine INISYM returns: Found  1 space group operations
 (whereof  1 operations are pure point group operations),
 and found     1 'primitive' translations

 
 
 KPOINTS: KPOINTS created by Atomic Simulation Env

Automatic generation of k-mesh.
Space group operators:
 irot       det(A)        alpha          n_x          n_y          n_z        tau_x        tau_y        tau_z
    1     1.000000     0.000000     1.000000     0.000000     0.000000     0.000000     0.000000     0.000000
 
 Subroutine IBZKPT returns following result:
 ===========================================
 
 Found      1 irreducible k-points:
 
 Following reciprocal coordinates:
            Coordinates               Weight
  0.000000  0.000000  0.000000      1.000000
 
 Following cartesian coordinates:
            Coordinates               Weight
  0.000000  0.000000  0.000000      1.000000
 


--------------------------------------------------------------------------------------------------------




 Dimension of arrays:
   k-points           NKPTS =      1   k-points in BZ     NKDIM =      1   number of bands    NBANDS=    352
   number of dos      NEDOS =    301   number of ions     NIONS =    112
   non local maximal  LDIM  =      4   non local SUM 2l+1 LMDIM =      8
   total plane-waves  NPLWV = 392000
   max r-space proj   IRMAX =   1827   max aug-charges    IRDMAX=   6476
   dimension x,y,z NGX =    70 NGY =   70 NGZ =   80
   dimension x,y,z NGXF=   140 NGYF=  140 NGZF=  160
   support grid    NGXF=   140 NGYF=  140 NGZF=  160
   ions per type =               1   1   3  72  35
 NGX,Y,Z   is equivalent  to a cutoff of   8.48,  8.47,  8.93 a.u.
 NGXF,Y,Z  is equivalent  to a cutoff of  16.95, 16.95, 17.86 a.u.


 I would recommend the setting:
   dimension x,y,z NGX =    67 NGY =   67 NGZ =   73
 SYSTEM =  unknown system                          
 POSCAR =  Al  C  H  O Si                          

 Startparameter for this run:
   NWRITE =      2    write-flag & timer
   PREC   = normal    normal or accurate (medium, high low for compatibility)
   ISTART =      0    job   : 0-new  1-cont  2-samecut
   ICHARG =      2    charge: 1-file 2-atom 10-const
   ISPIN  =      1    spin polarized calculation?
   LNONCOLLINEAR =      F non collinear calculations
   LSORBIT =      F    spin-orbit coupling
   INIWAV =      1    electr: 0-lowe 1-rand  2-diag
   LASPH  =      F    aspherical Exc in radial PAW
   METAGGA=      F    non-selfconsistent MetaGGA calc.

 Electronic Relaxation 1
   ENCUT  =  400.0 eV  29.40 Ry    5.42 a.u.  22.39 22.39 24.28*2*pi/ulx,y,z
   ENINI  =  400.0     initial cutoff
   ENAUG  =  644.9 eV  augmentation charge cutoff
   NELM   =     60;   NELMIN=  2; NELMDL= -5     # of ELM steps 
   EDIFF  = 0.1E-05   stopping-criterion for ELM
   LREAL  =      T    real-space projection
   NLSPLINE    = F    spline interpolate recip. space projectors
   LCOMPAT=      F    compatible to vasp.4.4
   GGA_COMPAT  = T    GGA compatible to vasp.4.4-vasp.4.6
   LMAXPAW     = -100 max onsite density
   LMAXMIX     =    2 max onsite mixed and CHGCAR
   VOSKOWN=      0    Vosko Wilk Nusair interpolation
   ROPT   =   -0.00050  -0.00050  -0.00050  -0.00050
   ROPT   =   -0.00050
 Ionic relaxation
   EDIFFG = 0.1E-04   stopping-criterion for IOM
   NSW    =      0    number of steps for IOM
   NBLOCK =      1;   KBLOCK =      1    inner block; outer block 
   IBRION =     -1    ionic relax: 0-MD 1-quasi-New 2-CG
   NFREE  =      0    steps in history (QN), initial steepest desc. (CG)
   ISIF   =      2    stress and relaxation
   IWAVPR =     10    prediction:  0-non 1-charg 2-wave 3-comb
   ISYM   =      2    0-nonsym 1-usesym 2-fastsym
   LCORR  =      T    Harris-Foulkes like correction to forces

   POTIM  = 0.5000    time-step for ionic-motion
   TEIN   =    0.0    initial temperature
   TEBEG  =    0.0;   TEEND  =   0.0 temperature during run
   SMASS  =  -3.00    Nose mass-parameter (am)
   estimated Nose-frequenzy (Omega)   =  0.10E-29 period in steps =****** mass=  -0.431E-26a.u.
   SCALEE = 1.0000    scale energy and forces
   NPACO  =    256;   APACO  = 16.0  distance and # of slots for P.C.
   PSTRESS=    0.0 pullay stress

  Mass of Ions in am
   POMASS =  26.98 12.01  1.00 16.00 28.09
  Ionic Valenz
   ZVAL   =   3.00  4.00  1.00  6.00  4.00
  Atomic Wigner-Seitz radii
   RWIGS  =  -1.00 -1.00 -1.00 -1.00 -1.00
  virtual crystal weights 
   VCA    =   1.00  1.00  1.00  1.00  1.00
   NELECT =     582.0000    total number of electrons
   NUPDOWN=      -1.0000    fix difference up-down

 DOS related values:
   EMIN   =  10.00;   EMAX   =-10.00  energy-range for DOS
   EFERMI =   0.00
   ISMEAR =     0;   SIGMA  =   0.01  broadening in eV -4-tet -1-fermi 0-gaus

 Electronic relaxation 2 (details)
   IALGO  =     38    algorithm
   LDIAG  =      T    sub-space diagonalisation (order eigenvalues)
   LSUBROT=      F    optimize rotation matrix (better conditioning)
   TURBO    =      0    0=normal 1=particle mesh
   IRESTART =      0    0=no restart 2=restart with 2 vectors
   NREBOOT  =      0    no. of reboots
   NMIN     =      0    reboot dimension
   EREF     =   0.00    reference energy to select bands
   IMIX   =      4    mixing-type and parameters
     AMIX     =   0.40;   BMIX     =  1.00
     AMIX_MAG =   1.60;   BMIX_MAG =  1.00
     AMIN     =   0.10
     WC   =   100.;   INIMIX=   1;  MIXPRE=   1;  MAXMIX= -45

 Intra band minimization:
   WEIMIN = 0.0000     energy-eigenvalue tresh-hold
   EBREAK =  0.71E-09  absolut break condition
   DEPER  =   0.30     relativ break condition  

   TIME   =   0.40     timestep for ELM

  volume/ion in A,a.u.               =      21.70       146.44
  Fermi-wavevector in a.u.,A,eV,Ry     =   1.016603  1.921101 14.061368  1.033481
  Thomas-Fermi vector in A             =   2.149956
 
 Write flags
   LWAVE  =      F    write WAVECAR
   LCHARG =      F    write CHGCAR
   LVTOT  =      F    write LOCPOT, total local potential
   LVHAR  =      F    write LOCPOT, Hartree potential only
   LELF   =      F    write electronic localiz. function (ELF)
   LORBIT =      0    0 simple, 1 ext, 2 COOP (PROOUT)


 Dipole corrections
   LMONO  =      F    monopole corrections only (constant potential shift)
   LDIPOL =      F    correct potential (dipole corrections)
   IDIPOL =      0    1-x, 2-y, 3-z, 4-all directions 
   EPSILON=  1.0000000 bulk dielectric constant

 Exchange correlation treatment:
   GGA     =    --    GGA type
   LEXCH   =     8    internal setting for exchange type
   VOSKOWN=      0    Vosko Wilk Nusair interpolation
   LHFCALC =     F    Hartree Fock is set to
   LHFONE  =     F    Hartree Fock one center treatment
   AEXX    =    0.0000 exact exchange contribution

 Linear response parameters
   LEPSILON=     F    determine dielectric tensor
   LRPA    =     F    only Hartree local field effects (RPA)
   LNABLA  =     F    use nabla operator in PAW spheres
   LVEL    =     F    velocity operator in full k-point grid
   LINTERFAST=   F  fast interpolation
   KINTER  =     0    interpolate to denser k-point grid
   CSHIFT  =0.1000    complex shift for real part using Kramers Kronig
   OMEGAMAX=  -1.0    maximum frequency
   DEG_THRESHOLD= 0.2000000E-02 threshold for treating states as degnerate
   RTIME   =    0.100 relaxation time in fs

 Orbital magnetization related:
   ORBITALMAG=     F  switch on orbital magnetization
   LCHIMAG   =     F  perturbation theory with respect to B field
   DQ        =  0.001000  dq finite difference perturbation B field



--------------------------------------------------------------------------------------------------------


 Static calculation
 charge density and potential will be updated during run
 non-spin polarized calculation
 Variant of blocked Davidson
 Davidson routine will perform the subspace rotation
 perform sub-space diagonalisation
    after iterative eigenvector-optimisation
 modified Broyden-mixing scheme, WC =      100.0
 initial mixing is a Kerker type mixing with AMIX =  0.4000 and BMIX =      1.0000
 Hartree-type preconditioning will be used
 using additional bands           61
 real space projection scheme for non local part
 use partial core corrections
 calculate Harris-corrections to forces 
   (improved forces if not selfconsistent)
 use gradient corrections 
 use of overlap-Matrix (Vanderbilt PP)
 Gauss-broadening in eV      SIGMA  =   0.01


--------------------------------------------------------------------------------------------------------


  energy-cutoff  :      400.00
  volume of cell :     2430.49
      direct lattice vectors                 reciprocal lattice vectors
    13.729571810 -0.004624560 -0.001411440     0.072849658  0.042081312  0.000003696
    -6.868739140 11.890914820  0.001819730     0.000028332  0.084114186 -0.000007382
    -0.001510650  0.001307270 14.890378430     0.000006902 -0.000006291  0.067157462

  length of vectors
    13.729572661 13.732204337 14.890378564     0.084130313  0.084114191  0.067157462


 
 k-points in units of 2pi/SCALE and weight: KPOINTS created by Atomic Simulation Env
   0.00000000  0.00000000  0.00000000       1.000
 
 k-points in reciprocal lattice and weights: KPOINTS created by Atomic Simulation Env
   0.00000000  0.00000000  0.00000000       1.000
 
 position of ions in fractional coordinates (direct lattice) 
   0.55735376  0.66677092  0.56463331
   0.78024562  0.76669660  0.49920801
   0.81145235  0.78996388  0.43022809
   0.83815621  0.75292644  0.54065457
   0.76535915  0.83146003  0.52787422
   0.01459726  0.33082845  0.83251986
   0.21002770  0.42471321  0.53711274
   0.54710116  0.09492254  0.20315513
   0.87649459  0.75881452  0.86652204
   0.44805408  0.54587548  0.80249280
   0.12154874  0.87820692  0.13253964
   0.08992057  0.54531840  0.80046091
   0.42876854  0.21581002  0.45970143
   0.76274597  0.88176416  0.13688851
   0.21275549  0.78618120  0.53511728
   0.89997120  0.10006718  0.12368298
   0.23722624  0.11875053  0.86621792
   0.87496240  0.43562144  0.45019830
   0.43329732  0.87165697  0.54188509
   0.98212637  0.31681325  0.16387269
   0.65119462  0.00780654  0.50501315
   0.99869910  0.65125234  0.50002705
   0.33217704  0.31252037  0.16598948
   0.98226022  0.66372793  0.16332976
   0.33746209  0.33703503  0.50109019
   0.68378204  0.01765822  0.16774498
   0.66268050  0.98006404  0.83582334
   0.99864649  0.34627048  0.50092032
   0.78407586  0.21747128  0.46350527
   0.33504023  0.02037164  0.16390051
   0.90739947  0.45250177  0.20673785
   0.31091598  0.33185089  0.83276937
   0.44930069  0.90342969  0.80052556
   0.07006724  0.66423789  0.66637262
   0.66592704  0.07084720  0.33459416
   0.99713772  0.74097517  0.99937410
   0.59056654  0.92925868  0.66873285
   0.92835753  0.60164496  0.33172560
   0.25758142  0.25770941  0.99930273
   0.40819221  0.34192333  0.33314016
   0.78242862  0.55961149  0.46410694
   0.73693857  0.99597138  0.00185273
   0.57493272  0.79427326  0.53261796
   0.59735208  0.66283189  0.67339063
   0.25747800  0.99915299  0.99881942
   0.06692347  0.40668122  0.66685793
   0.39997711  0.06597728  0.33289090
   0.33294481  0.40614234  0.66652457
   0.74486238  0.74318101  0.00401138
   0.54650817  0.45190695  0.19748222
   0.87623855  0.11797790  0.86938475
   0.33054332  0.92693570  0.66739952
   0.55792120  0.43796809  0.46519054
   0.66500717  0.58675198  0.33243186
   0.93185470  0.32714552  0.33232647
   0.34750152  0.00237233  0.50159181
   0.31252555  0.98044785  0.83338670
   0.90321056  0.80234663  0.12923513
   0.23074678  0.76435212  0.79009923
   0.11891861  0.23894119  0.13225609
   0.56446686  0.13468961  0.45444435
   0.23012744  0.46643642  0.78849919
   0.19540825  0.09677156  0.12376936
   0.00004274  0.26055061  0.99910561
   0.09593105  0.90029688  0.87478636
   0.79910981  0.89935452  0.87666863
   0.43178055  0.55486898  0.53178284
   0.52994902  0.76466508  0.79121056
   0.76610154  0.52981285  0.20781634
   0.12980594  0.56492652  0.54051510
   0.46758037  0.23405926  0.21515035
   0.67016384  0.66119479  0.49667058
   0.76627391  0.23360623  0.21149185
   0.65916102  0.68052846  0.84352421
   0.01479383  0.68393785  0.83276593
   0.09523901  0.19487520  0.87569741
   0.68653082  0.66790082  0.16937210
   0.55820843  0.89293232  0.77310718
   0.99650043  0.77137404  0.89366419
   0.89613347  0.33177740  0.22882778
   0.77114768  0.99940415  0.10674785
   0.10249243  0.43678257  0.56204652
   0.33092094  0.43811449  0.77140195
   0.00082168  0.77170401  0.10517061
   0.33091135  0.89334884  0.77224648
   0.22740770  0.99917068  0.10430828
   0.22609558  0.22609930  0.10457856
   0.10132135  0.43737493  0.77187570
   0.66545976  0.10687416  0.43893534
   0.99998804  0.22845259  0.10407806
   0.89769056  0.33124323  0.43629650
   0.33175023  0.89659619  0.56192238
   0.89833878  0.56198270  0.43581229
   0.10192562  0.66477252  0.77207748
   0.33005583  0.43392987  0.56005479
   0.89582719  0.56167469  0.22738784
   0.77492870  0.77433578  0.10895022
   0.66665030  0.55447992  0.43637820
   0.43174364  0.33269355  0.43916613
   0.10410121  0.66643325  0.56133741
   0.22523020  0.99918042  0.89361025
   0.66623410  0.55864365  0.22563575
   0.55941183  0.66395050  0.77500548
   0.99691529  0.22596859  0.89414312
   0.76946262  0.77072338  0.89743063
   0.66609669  0.10457813  0.22975143
   0.22494326  0.22623114  0.89379775
   0.43772051  0.33392909  0.22829788
   0.76838075  0.99775396  0.89605138
   0.56159007  0.89840587  0.56247373
   0.43737939  0.10405896  0.22912221
   0.43514308  0.10384777  0.43708996
 
 position of ions in cartesian coordinates  (Angst):
   3.07149999  7.92667683  8.40803033
   5.44544520  9.11376827  7.43369010
   5.71418756  9.39020302  6.40655128
   6.33505383  8.94981484  8.05073826
   4.79617393  9.88397102  7.86067967
  -2.07321784  3.93487374 12.39711718
  -0.03446525  5.04995947  7.99828838
   6.85915960  1.12645131  3.02445730
   6.82048741  9.02007820 12.90298481
   2.40090211  6.48993586 11.94978242
  -4.36356231 10.44229484  1.97499194
  -2.51228813  6.48496522 11.92003128
   4.40377128  2.56479665  6.84491579
   4.41536078 10.48163410  2.03884972
  -2.47984018  9.34812932  7.96922915
  11.66869702  1.18589003  1.84059822
   2.44003973  1.41208775 12.89819389
   9.02000897  5.17647965  6.70318081
  -0.03901628 10.36350336  8.06984866
  11.30781940  3.76287169  2.43931667
   8.88623931  0.09047560  7.51893200
   9.23767321  7.74002123  7.44536750
   2.41377687  3.71483392  2.47174603
   8.92679148  7.88800327  2.43186334
   2.31744732  4.00674928  7.46155956
   9.26649151  0.20702949  2.49685325
   2.36525264 11.65188606 12.44657395
  11.33179038  4.11350932  7.45811372
   9.27057214  2.58291239  6.90105794
   4.45978382  0.24090228  2.44010480
   9.34977726  5.37673394  3.07794751
   1.98808805  3.94566147 12.40041610
  -0.03792610 10.74157417 11.92113837
  -3.60149025  7.89894327  9.92365033
   8.65575673  0.83979581  4.98142267
   8.59919907  8.80756776 14.88099952
   1.72438003 11.04787891  9.95854266
   8.61290797  7.15024938  4.93930423
   1.76483429  3.06451580 14.88010122
   3.25521884  4.06432899  4.96062912
   6.89788348  6.65128088  6.91064196
   3.27678062 11.83960525  0.02836011
   2.43711964  9.44267314  7.93151686
   3.64755167  7.87979536 10.02740436
  -3.32936743 11.88095810 14.87425392
  -1.87556402  4.83637402  9.93041253
   5.03783085  0.78311568  4.95642699
   1.78049701  4.82873557  9.92507222
   5.12191898  8.83366267  0.06003203
   4.39899388  5.37131785  2.94063597
  11.21870734  1.39994946 12.94444586
  -1.82966948 11.02145731  9.93905165
   4.65102788  5.20586924  6.92687269
   5.09951522  6.97437703  4.95016531
  10.54638675  3.88618453  4.94774696
   4.75399443  0.02725785  7.46840571
  -2.44485750 11.65806604 12.41078638
   6.88938931  9.53662743  1.92454522
  -2.08327440  9.08881172 11.76594176
  -0.00872290  2.84085229  1.96961019
   6.82405399  1.59956635  6.76629673
  -0.04547003  5.54632228 11.74157531
   2.01798603  1.14996050  1.84287290
  -1.79057667  3.09949101 14.87753470
  -4.86813367 10.70605346 13.02740284
   4.79267959 10.69159850 13.05443635
   2.11610845  6.59659817  7.91884801
   2.02249292  9.09115088 11.78206815
   6.87878591  6.29668826  3.09434676
  -2.09896945  6.71759943  8.04931919
   4.81166125  2.78129763  3.20343609
   4.65873774  7.85976100  7.39587019
   8.91571293  2.77452458  3.14853723
   4.37435182  8.09016033 12.56070271
  -4.49593575  8.13366695 12.40142354
  -0.03227896  2.31794874 13.03968602
   4.83788183  7.93899827  2.52226107
   1.52947565 10.61621135 11.51269550
   8.38180714  9.16890289 13.30699517
  10.02429074  3.94129172  3.40667115
   3.72271979 11.88040295  1.59024610
  -1.59381741  5.19400510  8.36973554
   1.53294335  5.20906015 11.48679713
  -5.28951110  9.17640034  1.56743332
  -1.59407559 10.62221418 11.50020092
  -3.74098998 11.88013815  1.55468701
   1.55102041  2.68761864  1.55730665
  -1.61428158  5.20132852 11.49417417
   8.40172376  1.26832788  6.53516854
  12.16006913  2.71202184  1.54876600
  10.04902458  3.93520397  6.49595573
  -1.60454561 10.66054931  8.36840020
   8.47303586  6.67890372  6.48916463
  -3.16792025  7.90529136 11.49759170
   1.55012809  5.15902890  8.33975155
   8.44098330  6.67498035  3.38564868
   5.32056417  9.20411953  1.62262532
   5.34358602  6.59076100  6.49790460
   3.64180667  3.95460815  6.53934590
  -3.14913909  7.92475341  8.35959226
  -3.77214539 11.88129586 13.30769513
   5.30959056  6.63999798  3.35987794
   3.11881134  7.89340495 11.54054352
  12.13375003  2.68353185 13.31313354
   5.26913875  9.16222082 13.36339815
   8.42655537  1.24074958  3.42033589
   1.53310174  2.69022339 13.30908092
   3.71569849  3.96899655  3.39943167
   3.69487339 11.86182531 13.34327526
   1.53862593 10.68100587  8.37628890
   5.28993177  1.23563307  3.41128844
   5.26036463  1.23340404  6.50800971
 


--------------------------------------------------------------------------------------------------------


 k-point  1 :   0.0000 0.0000 0.0000  plane waves:   44137

 maximum and minimum number of plane-waves per node :      7363     7350

 maximum number of plane-waves:     44137
 maximum index in each direction: 
   IXMAX=   22   IYMAX=   22   IZMAX=   24
   IXMIN=  -22   IYMIN=  -22   IZMIN=  -24

 WARNING: aliasing errors must be expected set NGX to  90 to avoid them
 WARNING: aliasing errors must be expected set NGY to  90 to avoid them
 WARNING: aliasing errors must be expected set NGZ to  98 to avoid them
 aliasing errors are usually negligible using standard VASP settings
 and one can safely disregard these warnings

 real space projection operators:
  total allocation   :      10720.10 KBytes
  max/ min on nodes  :       1852.36       1692.68


 parallel 3D FFT for wavefunctions:
    minimum data exchange during FFTs selected (reduces bandwidth)
 parallel 3D FFT for charge:
    minimum data exchange during FFTs selected (reduces bandwidth)


 total amount of memory used by VASP on root node    53522. kBytes
========================================================================

   base      :      30000. kBytes
   nonlr-proj:       5696. kBytes
   fftplans  :       4343. kBytes
   grid      :       8131. kBytes
   one-center:         58. kBytes
   wavefun   :       5294. kBytes
 
     INWAV:  cpu time    0.0001: real time    0.0001
 Broyden mixing: mesh for mixing (old mesh)
   NGX = 45   NGY = 45   NGZ = 49
  (NGX  =140   NGY  =140   NGZ  =160)
  gives a total of  99225 points

 initial charge density was supplied:
 charge density of overlapping atoms calculated
 number of electron     582.0000000 magnetization 
 keeping initial charge density in first step


--------------------------------------------------------------------------------------------------------


 Maximum index for non-local projection operator          357
 Maximum index for augmentation-charges          338 (set IRDMAX)


--------------------------------------------------------------------------------------------------------


 First call to EWALD:  gamma=   0.132
 Maximum number of real-space cells 3x 3x 3
 Maximum number of reciprocal cells 3x 3x 3

 FEWALD executed in parallel
    FEWALD:  cpu time    0.0079: real time    0.0099


----------------------------------------- Iteration    1(   1)  ---------------------------------------


    POTLOK:  cpu time    0.1401: real time    0.1410
    SETDIJ:  cpu time    0.0073: real time    0.0074
     EDDAV:  cpu time    2.3143: real time    2.3209
       DOS:  cpu time    0.0005: real time    0.0005
    --------------------------------------------
      LOOP:  cpu time    2.4716: real time    2.4981

 eigenvalue-minimisations  :   760
 total energy-change (2. order) : 0.4418921E+04  (-0.2449067E+05)
 number of electron     582.0000000 magnetization 
 augmentation part      582.0000000 magnetization 

 Free energy of the ion-electron system (eV)
  ---------------------------------------------------
  alpha Z        PSCENC =       476.21782361
  Ewald energy   TEWEN  =     -2792.00510121
  -Hartree energ DENC   =    -28381.60175041
  -exchange      EXHF   =         0.00000000
  -V(xc)+E(xc)   XCENC  =      1690.07460063
  PAW double counting   =     28217.01960844   -27699.40053531
  entropy T*S    EENTRO =        -0.00005055
  eigenvalues    EBANDS =     -2059.73622115
  atomic energy  EATOM  =     34968.35250874
  Solvation  Ediel_sol  =         0.00000000
  ---------------------------------------------------
  free energy    TOTEN  =      4418.92088280 eV

  energy without entropy =     4418.92093335  energy(sigma->0) =     4418.92090807


--------------------------------------------------------------------------------------------------------




----------------------------------------- Iteration    1(   2)  ---------------------------------------


     EDDAV:  cpu time    2.3939: real time    2.3982
       DOS:  cpu time    0.0003: real time    0.0003
    --------------------------------------------
      LOOP:  cpu time    2.4021: real time    2.4076

 eigenvalue-minimisations  :   864
 total energy-change (2. order) :-0.4838826E+04  (-0.4739695E+04)
 number of electron     582.0000000 magnetization 
 augmentation part      582.0000000 magnetization 

 Free energy of the ion-electron system (eV)
  ---------------------------------------------------
  alpha Z        PSCENC =       476.21782361
  Ewald energy   TEWEN  =     -2792.00510121
  -Hartree energ DENC   =    -28381.60175041
  -exchange      EXHF   =         0.00000000
  -V(xc)+E(xc)   XCENC  =      1690.07460063
  PAW double counting   =     28217.01960844   -27699.40053531
  entropy T*S    EENTRO =        -0.00000000
  eigenvalues    EBANDS =     -6898.56240547
  atomic energy  EATOM  =     34968.35250874
  Solvation  Ediel_sol  =         0.00000000
  ---------------------------------------------------
  free energy    TOTEN  =      -419.90525097 eV

  energy without entropy =     -419.90525097  energy(sigma->0) =     -419.90525097


--------------------------------------------------------------------------------------------------------




----------------------------------------- Iteration    1(   3)  ---------------------------------------


     EDDAV:  cpu time    2.1971: real time    2.2029
       DOS:  cpu time    0.0002: real time    0.0002
    --------------------------------------------
      LOOP:  cpu time    2.1989: real time    2.2081

 eigenvalue-minimisations  :   816
 total energy-change (2. order) :-0.5564907E+03  (-0.5543684E+03)
 number of electron     582.0000000 magnetization 
 augmentation part      582.0000000 magnetization 

 Free energy of the ion-electron system (eV)
  ---------------------------------------------------
  alpha Z        PSCENC =       476.21782361
  Ewald energy   TEWEN  =     -2792.00510121
  -Hartree energ DENC   =    -28381.60175041
  -exchange      EXHF   =         0.00000000
  -V(xc)+E(xc)   XCENC  =      1690.07460063
  PAW double counting   =     28217.01960844   -27699.40053531
  entropy T*S    EENTRO =        -0.00000000
  eigenvalues    EBANDS =     -7455.05314639
  atomic energy  EATOM  =     34968.35250874
  Solvation  Ediel_sol  =         0.00000000
  ---------------------------------------------------
  free energy    TOTEN  =      -976.39599189 eV

  energy without entropy =     -976.39599189  energy(sigma->0) =     -976.39599189


--------------------------------------------------------------------------------------------------------




----------------------------------------- Iteration    1(   4)  ---------------------------------------


     EDDAV:  cpu time    2.2112: real time    2.2152
       DOS:  cpu time    0.0002: real time    0.0002
    --------------------------------------------
      LOOP:  cpu time    2.2170: real time    2.2230

 eigenvalue-minimisations  :   832
 total energy-change (2. order) :-0.1305307E+02  (-0.1301190E+02)
 number of electron     582.0000000 magnetization 
 augmentation part      582.0000000 magnetization 

 Free energy of the ion-electron system (eV)
  ---------------------------------------------------
  alpha Z        PSCENC =       476.21782361
  Ewald energy   TEWEN  =     -2792.00510121
  -Hartree energ DENC   =    -28381.60175041
  -exchange      EXHF   =         0.00000000
  -V(xc)+E(xc)   XCENC  =      1690.07460063
  PAW double counting   =     28217.01960844   -27699.40053531
  entropy T*S    EENTRO =        -0.00000000
  eigenvalues    EBANDS =     -7468.10621329
  atomic energy  EATOM  =     34968.35250874
  Solvation  Ediel_sol  =         0.00000000
  ---------------------------------------------------
  free energy    TOTEN  =      -989.44905879 eV

  energy without entropy =     -989.44905879  energy(sigma->0) =     -989.44905879


--------------------------------------------------------------------------------------------------------




----------------------------------------- Iteration    1(   5)  ---------------------------------------


     EDDAV:  cpu time    2.1864: real time    2.1902
       DOS:  cpu time    0.0003: real time    0.0003
    CHARGE:  cpu time    0.0595: real time    0.0596
    MIXING:  cpu time    0.0024: real time    0.0027
    --------------------------------------------
      LOOP:  cpu time    2.2524: real time    2.2583

 eigenvalue-minimisations  :   832
 total energy-change (2. order) :-0.4053252E+00  (-0.4048844E+00)
 number of electron     581.9999861 magnetization 
 augmentation part       53.4214977 magnetization 

 Broyden mixing:
  rms(total) = 0.85624E+01    rms(broyden)= 0.85578E+01
  rms(prec ) = 0.93336E+01
  weight for this iteration     100.00

 Free energy of the ion-electron system (eV)
  ---------------------------------------------------
  alpha Z        PSCENC =       476.21782361
  Ewald energy   TEWEN  =     -2792.00510121
  -Hartree energ DENC   =    -28381.60175041
  -exchange      EXHF   =         0.00000000
  -V(xc)+E(xc)   XCENC  =      1690.07460063
  PAW double counting   =     28217.01960844   -27699.40053531
  entropy T*S    EENTRO =        -0.00000000
  eigenvalues    EBANDS =     -7468.51153852
  atomic energy  EATOM  =     34968.35250874
  Solvation  Ediel_sol  =         0.00000000
  ---------------------------------------------------
  free energy    TOTEN  =      -989.85438402 eV

  energy without entropy =     -989.85438402  energy(sigma->0) =     -989.85438402


--------------------------------------------------------------------------------------------------------




----------------------------------------- Iteration    1(   6)  ---------------------------------------


    POTLOK:  cpu time    0.0491: real time    0.0491
    SETDIJ:  cpu time    0.0055: real time    0.0055
     EDDAV:  cpu time    2.1247: real time    2.1284
       DOS:  cpu time    0.0002: real time    0.0002
    CHARGE:  cpu time    0.0567: real time    0.0568
    MIXING:  cpu time    0.0018: real time    0.0019
    --------------------------------------------
      LOOP:  cpu time    2.2406: real time    2.2465

 eigenvalue-minimisations  :   800
 total energy-change (2. order) : 0.1159988E+03  (-0.5075268E+02)
 number of electron     581.9999885 magnetization 
 augmentation part       43.3217342 magnetization 

 Broyden mixing:
  rms(total) = 0.39621E+01    rms(broyden)= 0.39602E+01
  rms(prec ) = 0.40459E+01
  weight for this iteration     100.00

 eigenvalues of (default mixing * dielectric matrix)
  average eigenvalue GAMMA=   1.1541
  1.1541

 Free energy of the ion-electron system (eV)
  ---------------------------------------------------
  alpha Z        PSCENC =       476.21782361
  Ewald energy   TEWEN  =     -2792.00510121
  -Hartree energ DENC   =    -29755.02848308
  -exchange      EXHF   =         0.00000000
  -V(xc)+E(xc)   XCENC  =      1777.27410441
  PAW double counting   =     49537.64427501   -49044.27279440
  entropy T*S    EENTRO =        -0.00000000
  eigenvalues    EBANDS =     -6042.03795091
  atomic energy  EATOM  =     34968.35250874
  Solvation  Ediel_sol  =         0.00000000
  ---------------------------------------------------
  free energy    TOTEN  =      -873.85561782 eV

  energy without entropy =     -873.85561782  energy(sigma->0) =     -873.85561782


--------------------------------------------------------------------------------------------------------




----------------------------------------- Iteration    1(   7)  ---------------------------------------


    POTLOK:  cpu time    0.0461: real time    0.0462
    SETDIJ:  cpu time    0.0054: real time    0.0054
     EDDAV:  cpu time    2.3485: real time    2.3528
       DOS:  cpu time    0.0003: real time    0.0003
    CHARGE:  cpu time    0.0580: real time    0.0581
    MIXING:  cpu time    0.0013: real time    0.0013
    --------------------------------------------
      LOOP:  cpu time    2.4622: real time    2.4686

 eigenvalue-minimisations  :   920
 total energy-change (2. order) : 0.5575596E+00  (-0.1600267E+01)
 number of electron     581.9999887 magnetization 
 augmentation part       42.5017529 magnetization 

 Broyden mixing:
  rms(total) = 0.15050E+01    rms(broyden)= 0.15048E+01
  rms(prec ) = 0.15745E+01
  weight for this iteration     100.00

 eigenvalues of (default mixing * dielectric matrix)
  average eigenvalue GAMMA=   1.2815
  1.2815  1.2815

 Free energy of the ion-electron system (eV)
  ---------------------------------------------------
  alpha Z        PSCENC =       476.21782361
  Ewald energy   TEWEN  =     -2792.00510121
  -Hartree energ DENC   =    -29975.44224254
  -exchange      EXHF   =         0.00000000
  -V(xc)+E(xc)   XCENC  =      1789.64002951
  PAW double counting   =     72199.88159037   -71706.69215692
  entropy T*S    EENTRO =        -0.00000000
  eigenvalues    EBANDS =     -5833.25050977
  atomic energy  EATOM  =     34968.35250874
  Solvation  Ediel_sol  =         0.00000000
  ---------------------------------------------------
  free energy    TOTEN  =      -873.29805820 eV

  energy without entropy =     -873.29805820  energy(sigma->0) =     -873.29805820


--------------------------------------------------------------------------------------------------------




----------------------------------------- Iteration    1(   8)  ---------------------------------------


    POTLOK:  cpu time    0.0458: real time    0.0459
    SETDIJ:  cpu time    0.0053: real time    0.0053
     EDDAV:  cpu time    2.2228: real time    2.2268
       DOS:  cpu time    0.0004: real time    0.0004
    CHARGE:  cpu time    0.0575: real time    0.0576
    MIXING:  cpu time    0.0014: real time    0.0014
    --------------------------------------------
      LOOP:  cpu time    2.3356: real time    2.3419

 eigenvalue-minimisations  :   816
 total energy-change (2. order) : 0.4936011E+00  (-0.1089089E+00)
 number of electron     581.9999886 magnetization 
 augmentation part       42.7502329 magnetization 

 Broyden mixing:
  rms(total) = 0.59787E+00    rms(broyden)= 0.59786E+00
  rms(prec ) = 0.64284E+00
  weight for this iteration     100.00

 eigenvalues of (default mixing * dielectric matrix)
  average eigenvalue GAMMA=   1.5504
  1.0874  1.0874  2.4763

 Free energy of the ion-electron system (eV)
  ---------------------------------------------------
  alpha Z        PSCENC =       476.21782361
  Ewald energy   TEWEN  =     -2792.00510121
  -Hartree energ DENC   =    -30069.08560777
  -exchange      EXHF   =         0.00000000
  -V(xc)+E(xc)   XCENC  =      1793.76914099
  PAW double counting   =     83720.59603303   -83227.63379242
  entropy T*S    EENTRO =        -0.00000000
  eigenvalues    EBANDS =     -5743.01546210
  atomic energy  EATOM  =     34968.35250874
  Solvation  Ediel_sol  =         0.00000000
  ---------------------------------------------------
  free energy    TOTEN  =      -872.80445711 eV

  energy without entropy =     -872.80445711  energy(sigma->0) =     -872.80445711


--------------------------------------------------------------------------------------------------------




----------------------------------------- Iteration    1(   9)  ---------------------------------------


    POTLOK:  cpu time    0.0454: real time    0.0455
    SETDIJ:  cpu time    0.0053: real time    0.0053
     EDDAV:  cpu time    2.1609: real time    2.1645
       DOS:  cpu time    0.0004: real time    0.0004
    CHARGE:  cpu time    0.0583: real time    0.0583
    MIXING:  cpu time    0.0015: real time    0.0015
    --------------------------------------------
      LOOP:  cpu time    2.2735: real time    2.2803

 eigenvalue-minimisations  :   824
 total energy-change (2. order) : 0.1460927E+00  (-0.4488737E-01)
 number of electron     581.9999886 magnetization 
 augmentation part       42.6557919 magnetization 

 Broyden mixing:
  rms(total) = 0.10263E+00    rms(broyden)= 0.10261E+00
  rms(prec ) = 0.12946E+00
  weight for this iteration     100.00

 eigenvalues of (default mixing * dielectric matrix)
  average eigenvalue GAMMA=   1.5181
  2.5046  1.0369  1.0369  1.4941

 Free energy of the ion-electron system (eV)
  ---------------------------------------------------
  alpha Z        PSCENC =       476.21782361
  Ewald energy   TEWEN  =     -2792.00510121
  -Hartree energ DENC   =    -30197.32131854
  -exchange      EXHF   =         0.00000000
  -V(xc)+E(xc)   XCENC  =      1800.24108299
  PAW double counting   =     92565.70291197   -92073.53000911
  entropy T*S    EENTRO =        -0.00000000
  eigenvalues    EBANDS =     -5620.31626287
  atomic energy  EATOM  =     34968.35250874
  Solvation  Ediel_sol  =         0.00000000
  ---------------------------------------------------
  free energy    TOTEN  =      -872.65836442 eV

  energy without entropy =     -872.65836442  energy(sigma->0) =     -872.65836442


--------------------------------------------------------------------------------------------------------




----------------------------------------- Iteration    1(  10)  ---------------------------------------


    POTLOK:  cpu time    0.0434: real time    0.0435
    SETDIJ:  cpu time    0.0053: real time    0.0053
     EDDAV:  cpu time    2.1483: real time    2.1522
       DOS:  cpu time    0.0002: real time    0.0002
    CHARGE:  cpu time    0.0588: real time    0.0589
    MIXING:  cpu time    0.0017: real time    0.0017
    --------------------------------------------
      LOOP:  cpu time    2.2606: real time    2.2663

 eigenvalue-minimisations  :   816
 total energy-change (2. order) :-0.2258303E-02  (-0.8386606E-02)
 number of electron     581.9999886 magnetization 
 augmentation part       42.5951082 magnetization 

 Broyden mixing:
  rms(total) = 0.65586E-01    rms(broyden)= 0.65556E-01
  rms(prec ) = 0.85662E-01
  weight for this iteration     100.00

 eigenvalues of (default mixing * dielectric matrix)
  average eigenvalue GAMMA=   1.4382
  2.5382  1.5981  1.0251  1.0251  1.0043

 Free energy of the ion-electron system (eV)
  ---------------------------------------------------
  alpha Z        PSCENC =       476.21782361
  Ewald energy   TEWEN  =     -2792.00510121
  -Hartree energ DENC   =    -30225.58046507
  -exchange      EXHF   =         0.00000000
  -V(xc)+E(xc)   XCENC  =      1801.13044609
  PAW double counting   =     91943.58746400   -91451.35799118
  entropy T*S    EENTRO =        -0.00000000
  eigenvalues    EBANDS =     -5593.00530771
  atomic energy  EATOM  =     34968.35250874
  Solvation  Ediel_sol  =         0.00000000
  ---------------------------------------------------
  free energy    TOTEN  =      -872.66062273 eV

  energy without entropy =     -872.66062273  energy(sigma->0) =     -872.66062273


--------------------------------------------------------------------------------------------------------




----------------------------------------- Iteration    1(  11)  ---------------------------------------


    POTLOK:  cpu time    0.0601: real time    0.0602
    SETDIJ:  cpu time    0.0054: real time    0.0055
     EDDAV:  cpu time    2.0805: real time    2.0843
       DOS:  cpu time    0.0002: real time    0.0002
    CHARGE:  cpu time    0.0602: real time    0.0602
    MIXING:  cpu time    0.0016: real time    0.0016
    --------------------------------------------
      LOOP:  cpu time    2.2108: real time    2.2164

 eigenvalue-minimisations  :   784
 total energy-change (2. order) :-0.9761354E-03  (-0.1975026E-02)
 number of electron     581.9999886 magnetization 
 augmentation part       42.6272595 magnetization 

 Broyden mixing:
  rms(total) = 0.29103E-01    rms(broyden)= 0.29096E-01
  rms(prec ) = 0.49454E-01
  weight for this iteration     100.00

 eigenvalues of (default mixing * dielectric matrix)
  average eigenvalue GAMMA=   1.5106
  2.5212  2.3180  1.0574  1.0574  1.0549  1.0549

 Free energy of the ion-electron system (eV)
  ---------------------------------------------------
  alpha Z        PSCENC =       476.21782361
  Ewald energy   TEWEN  =     -2792.00510121
  -Hartree energ DENC   =    -30235.96268755
  -exchange      EXHF   =         0.00000000
  -V(xc)+E(xc)   XCENC  =      1801.20104155
  PAW double counting   =     91581.18143620   -91088.79712206
  entropy T*S    EENTRO =        -0.00000000
  eigenvalues    EBANDS =     -5582.84949814
  atomic energy  EATOM  =     34968.35250874
  Solvation  Ediel_sol  =         0.00000000
  ---------------------------------------------------
  free energy    TOTEN  =      -872.66159886 eV

  energy without entropy =     -872.66159886  energy(sigma->0) =     -872.66159886


--------------------------------------------------------------------------------------------------------




----------------------------------------- Iteration    1(  12)  ---------------------------------------


    POTLOK:  cpu time    0.0435: real time    0.0435
    SETDIJ:  cpu time    0.0052: real time    0.0052
     EDDAV:  cpu time    2.0750: real time    2.0789
       DOS:  cpu time    0.0005: real time    0.0005
    CHARGE:  cpu time    0.0547: real time    0.0548
    MIXING:  cpu time    0.0017: real time    0.0017
    --------------------------------------------
      LOOP:  cpu time    2.1827: real time    2.1888

 eigenvalue-minimisations  :   784
 total energy-change (2. order) :-0.6519862E-02  (-0.7254309E-03)
 number of electron     581.9999886 magnetization 
 augmentation part       42.6177081 magnetization 

 Broyden mixing:
  rms(total) = 0.14722E-01    rms(broyden)= 0.14712E-01
  rms(prec ) = 0.28119E-01
  weight for this iteration     100.00

 eigenvalues of (default mixing * dielectric matrix)
  average eigenvalue GAMMA=   1.5755
  3.0663  2.5209  1.2141  1.2141  0.9916  1.0107  1.0107

 Free energy of the ion-electron system (eV)
  ---------------------------------------------------
  alpha Z        PSCENC =       476.21782361
  Ewald energy   TEWEN  =     -2792.00510121
  -Hartree energ DENC   =    -30253.51520866
  -exchange      EXHF   =         0.00000000
  -V(xc)+E(xc)   XCENC  =      1801.56304651
  PAW double counting   =     91166.37319298   -90673.91538377
  entropy T*S    EENTRO =        -0.00000000
  eigenvalues    EBANDS =     -5565.73899692
  atomic energy  EATOM  =     34968.35250874
  Solvation  Ediel_sol  =         0.00000000
  ---------------------------------------------------
  free energy    TOTEN  =      -872.66811872 eV

  energy without entropy =     -872.66811872  energy(sigma->0) =     -872.66811872


--------------------------------------------------------------------------------------------------------




----------------------------------------- Iteration    1(  13)  ---------------------------------------


    POTLOK:  cpu time    0.0432: real time    0.0432
    SETDIJ:  cpu time    0.0052: real time    0.0052
     EDDAV:  cpu time    2.1183: real time    2.1223
       DOS:  cpu time    0.0003: real time    0.0003
    CHARGE:  cpu time    0.0562: real time    0.0562
    MIXING:  cpu time    0.0019: real time    0.0019
    --------------------------------------------
      LOOP:  cpu time    2.2280: real time    2.2339

 eigenvalue-minimisations  :   808
 total energy-change (2. order) :-0.1052740E-01  (-0.4529804E-03)
 number of electron     581.9999886 magnetization 
 augmentation part       42.6251383 magnetization 

 Broyden mixing:
  rms(total) = 0.17622E-01    rms(broyden)= 0.17619E-01
  rms(prec ) = 0.21441E-01
  weight for this iteration     100.00

 eigenvalues of (default mixing * dielectric matrix)
  average eigenvalue GAMMA=   1.6511
  3.0895  2.6289  2.2158  0.9573  1.0828  1.0828  1.0757  1.0757

 Free energy of the ion-electron system (eV)
  ---------------------------------------------------
  alpha Z        PSCENC =       476.21782361
  Ewald energy   TEWEN  =     -2792.00510121
  -Hartree energ DENC   =    -30264.89188478
  -exchange      EXHF   =         0.00000000
  -V(xc)+E(xc)   XCENC  =      1801.68260820
  PAW double counting   =     91064.93382243   -90572.40301075
  entropy T*S    EENTRO =        -0.00000000
  eigenvalues    EBANDS =     -5554.56541236
  atomic energy  EATOM  =     34968.35250874
  Solvation  Ediel_sol  =         0.00000000
  ---------------------------------------------------
  free energy    TOTEN  =      -872.67864612 eV

  energy without entropy =     -872.67864612  energy(sigma->0) =     -872.67864612


--------------------------------------------------------------------------------------------------------




----------------------------------------- Iteration    1(  14)  ---------------------------------------


    POTLOK:  cpu time    0.0480: real time    0.0480
    SETDIJ:  cpu time    0.0051: real time    0.0051
     EDDAV:  cpu time    2.1068: real time    2.1105
       DOS:  cpu time    0.0002: real time    0.0002
    CHARGE:  cpu time    0.0594: real time    0.0595
    MIXING:  cpu time    0.0020: real time    0.0021
    --------------------------------------------
      LOOP:  cpu time    2.2239: real time    2.2294

 eigenvalue-minimisations  :   800
 total energy-change (2. order) :-0.8048824E-02  (-0.2644499E-03)
 number of electron     581.9999886 magnetization 
 augmentation part       42.6179523 magnetization 

 Broyden mixing:
  rms(total) = 0.56819E-02    rms(broyden)= 0.56741E-02
  rms(prec ) = 0.75272E-02
  weight for this iteration     100.00

 eigenvalues of (default mixing * dielectric matrix)
  average eigenvalue GAMMA=   1.7648
  4.4761  2.6531  2.3374  1.0441  1.0441  1.1860  1.1211  1.1211  0.9001

 Free energy of the ion-electron system (eV)
  ---------------------------------------------------
  alpha Z        PSCENC =       476.21782361
  Ewald energy   TEWEN  =     -2792.00510121
  -Hartree energ DENC   =    -30271.21408261
  -exchange      EXHF   =         0.00000000
  -V(xc)+E(xc)   XCENC  =      1801.75407327
  PAW double counting   =     91291.30253143   -90798.79729506
  entropy T*S    EENTRO =        -0.00000000
  eigenvalues    EBANDS =     -5548.29715311
  atomic energy  EATOM  =     34968.35250874
  Solvation  Ediel_sol  =         0.00000000
  ---------------------------------------------------
  free energy    TOTEN  =      -872.68669494 eV

  energy without entropy =     -872.68669494  energy(sigma->0) =     -872.68669494


--------------------------------------------------------------------------------------------------------




----------------------------------------- Iteration    1(  15)  ---------------------------------------


    POTLOK:  cpu time    0.0511: real time    0.0512
    SETDIJ:  cpu time    0.0050: real time    0.0050
     EDDAV:  cpu time    2.2369: real time    2.2410
       DOS:  cpu time    0.0004: real time    0.0004
    CHARGE:  cpu time    0.0591: real time    0.0591
    MIXING:  cpu time    0.0023: real time    0.0023
    --------------------------------------------
      LOOP:  cpu time    2.3575: real time    2.3635

 eigenvalue-minimisations  :   832
 total energy-change (2. order) :-0.1842013E-02  (-0.5419094E-04)
 number of electron     581.9999886 magnetization 
 augmentation part       42.6154127 magnetization 

 Broyden mixing:
  rms(total) = 0.54572E-02    rms(broyden)= 0.54557E-02
  rms(prec ) = 0.62471E-02
  weight for this iteration     100.00

 eigenvalues of (default mixing * dielectric matrix)
  average eigenvalue GAMMA=   1.7195
  4.7657  2.7606  2.4330  1.0875  1.0875  1.1426  1.1426  1.0461  0.8650  0.8650

 Free energy of the ion-electron system (eV)
  ---------------------------------------------------
  alpha Z        PSCENC =       476.21782361
  Ewald energy   TEWEN  =     -2792.00510121
  -Hartree energ DENC   =    -30273.69329406
  -exchange      EXHF   =         0.00000000
  -V(xc)+E(xc)   XCENC  =      1801.79481766
  PAW double counting   =     91303.16191246   -90810.65769791
  entropy T*S    EENTRO =        -0.00000000
  eigenvalues    EBANDS =     -5545.85950626
  atomic energy  EATOM  =     34968.35250874
  Solvation  Ediel_sol  =         0.00000000
  ---------------------------------------------------
  free energy    TOTEN  =      -872.68853696 eV

  energy without entropy =     -872.68853696  energy(sigma->0) =     -872.68853696


--------------------------------------------------------------------------------------------------------




----------------------------------------- Iteration    1(  16)  ---------------------------------------


    POTLOK:  cpu time    0.0442: real time    0.0443
    SETDIJ:  cpu time    0.0047: real time    0.0047
     EDDAV:  cpu time    2.2678: real time    2.2718
       DOS:  cpu time    0.0002: real time    0.0002
    CHARGE:  cpu time    0.0543: real time    0.0544
    MIXING:  cpu time    0.0022: real time    0.0022
    --------------------------------------------
      LOOP:  cpu time    2.3756: real time    2.3823

 eigenvalue-minimisations  :   824
 total energy-change (2. order) :-0.4773164E-03  (-0.1637616E-04)
 number of electron     581.9999886 magnetization 
 augmentation part       42.6165065 magnetization 

 Broyden mixing:
  rms(total) = 0.39872E-02    rms(broyden)= 0.39866E-02
  rms(prec ) = 0.43609E-02
  weight for this iteration     100.00

 eigenvalues of (default mixing * dielectric matrix)
  average eigenvalue GAMMA=   1.6997
  5.0063  2.7038  2.3742  1.2404  1.2404  1.0199  1.0199  1.1486  1.1486  1.0074
  0.7871

 Free energy of the ion-electron system (eV)
  ---------------------------------------------------
  alpha Z        PSCENC =       476.21782361
  Ewald energy   TEWEN  =     -2792.00510121
  -Hartree energ DENC   =    -30273.91553446
  -exchange      EXHF   =         0.00000000
  -V(xc)+E(xc)   XCENC  =      1801.78552824
  PAW double counting   =     91316.22425948   -90823.72221377
  entropy T*S    EENTRO =        -0.00000000
  eigenvalues    EBANDS =     -5545.62628490
  atomic energy  EATOM  =     34968.35250874
  Solvation  Ediel_sol  =         0.00000000
  ---------------------------------------------------
  free energy    TOTEN  =      -872.68901427 eV

  energy without entropy =     -872.68901427  energy(sigma->0) =     -872.68901427


--------------------------------------------------------------------------------------------------------




----------------------------------------- Iteration    1(  17)  ---------------------------------------


    POTLOK:  cpu time    0.0647: real time    0.0648
    SETDIJ:  cpu time    0.0048: real time    0.0049
     EDDAV:  cpu time    2.1498: real time    2.1536
       DOS:  cpu time    0.0005: real time    0.0005
    CHARGE:  cpu time    0.0560: real time    0.0561
    MIXING:  cpu time    0.0023: real time    0.0023
    --------------------------------------------
      LOOP:  cpu time    2.2809: real time    2.2867

 eigenvalue-minimisations  :   808
 total energy-change (2. order) :-0.1867722E-03  (-0.7003893E-05)
 number of electron     581.9999886 magnetization 
 augmentation part       42.6177012 magnetization 

 Broyden mixing:
  rms(total) = 0.19112E-02    rms(broyden)= 0.19103E-02
[...]
   0.109E+03 -.543E+02 0.218E+03   -.114E+03 0.565E+02 -.237E+03   0.550E+01 -.215E+01 0.190E+02   -.107E-03 -.162E-03 -.630E-04
   0.116E+03 -.680E+02 0.191E+03   -.122E+03 0.709E+02 -.208E+03   0.590E+01 -.298E+01 0.167E+02   -.209E-03 0.122E-03 -.940E-05
   0.114E+03 -.206E+03 -.423E+01   -.124E+03 0.222E+03 0.461E+01   0.969E+01 -.162E+02 -.386E+00   0.109E-03 0.144E-03 0.665E-05
   -.482E+02 0.522E+02 -.165E+03   0.528E+02 -.592E+02 0.182E+03   -.456E+01 0.700E+01 -.170E+02   -.337E-03 -.316E-03 0.218E-03
   0.132E+03 -.165E+03 0.268E+02   -.142E+03 0.180E+03 -.286E+02   0.981E+01 -.151E+02 0.179E+01   -.177E-03 -.122E-03 -.369E-04
   -.256E+03 0.826E+01 0.179E+01   0.278E+03 -.103E+02 -.208E+01   -.216E+02 0.208E+01 0.284E+00   0.266E-03 0.176E-05 0.258E-04
   0.231E+03 -.698E+01 -.117E+02   -.252E+03 0.777E+01 0.133E+02   0.214E+02 -.787E+00 -.161E+01   -.121E-03 0.114E-03 0.133E-04
   -.120E+03 -.199E+03 -.448E+01   0.131E+03 0.216E+03 0.460E+01   -.106E+02 -.175E+02 -.126E+00   0.177E-03 0.217E-03 -.765E-04
   -.491E+01 -.887E+02 -.150E+03   0.543E+01 0.103E+03 0.163E+03   -.518E+00 -.146E+02 -.135E+02   0.680E-04 -.114E-04 -.233E-03
   -.773E+02 0.434E+02 -.151E+03   0.901E+02 -.505E+02 0.162E+03   -.129E+02 0.709E+01 -.113E+02   0.158E-03 -.471E-04 -.641E-04
   -.308E+01 -.131E+03 -.195E+03   0.304E+01 0.137E+03 0.213E+03   0.407E-01 -.611E+01 -.180E+02   0.579E-04 0.953E-04 0.957E-04
   0.447E+01 -.814E+02 -.145E+03   -.458E+01 0.961E+02 0.155E+03   0.104E+00 -.148E+02 -.104E+02   -.177E-03 -.374E-04 0.381E-04
   -.195E+01 -.836E+02 -.143E+03   0.269E+01 0.981E+02 0.154E+03   -.738E+00 -.145E+02 -.106E+02   0.154E-03 0.711E-04 -.177E-03
   0.693E+02 0.389E+02 -.149E+03   -.827E+02 -.467E+02 0.160E+03   0.134E+02 0.783E+01 -.119E+02   0.237E-04 0.552E-04 0.285E-04
   0.119E+03 -.213E+03 0.187E+01   -.128E+03 0.230E+03 -.225E+01   0.894E+01 -.170E+02 0.385E+00   -.113E-03 0.992E-04 -.135E-03
   0.692E+02 -.432E+02 0.149E+03   -.821E+02 0.509E+02 -.160E+03   0.129E+02 -.764E+01 0.117E+02   0.351E-04 -.117E-04 0.121E-03
   -.668E+02 -.424E+02 0.148E+03   0.799E+02 0.498E+02 -.161E+03   -.131E+02 -.742E+01 0.124E+02   -.810E-04 -.847E-04 0.112E-04
   0.547E+02 -.824E+02 0.145E+03   -.570E+02 0.946E+02 -.161E+03   0.233E+01 -.122E+02 0.158E+02   -.189E-03 -.534E-04 0.107E-03
   0.771E+02 0.462E+02 -.141E+03   -.889E+02 -.545E+02 0.151E+03   0.118E+02 0.823E+01 -.105E+02   -.501E-04 -.148E-03 -.826E-04
   -.303E+01 0.985E+02 0.169E+03   0.374E+01 -.114E+03 -.181E+03   -.713E+00 0.152E+02 0.117E+02   0.151E-04 -.114E-03 -.242E-03
   -.845E+02 -.434E+02 0.149E+03   0.964E+02 0.494E+02 -.162E+03   -.119E+02 -.606E+01 0.129E+02   0.369E-03 -.522E-04 0.731E-04
   -.677E+02 -.369E+02 0.141E+03   0.809E+02 0.442E+02 -.150E+03   -.132E+02 -.727E+01 0.865E+01   -.819E-04 -.653E-04 0.105E-03
   0.153E+02 -.903E+02 -.381E+02   -.306E+02 0.847E+02 0.442E+02   0.153E+02 0.558E+01 -.608E+01   -.287E-03 -.392E-04 0.287E-03
   0.755E+02 -.420E+02 0.155E+03   -.886E+02 0.495E+02 -.166E+03   0.131E+02 -.746E+01 0.111E+02   -.547E-04 0.173E-04 -.544E-04
   -.860E+02 0.215E+03 -.300E+02   0.923E+02 -.234E+03 0.334E+02   -.634E+01 0.196E+02 -.341E+01   0.797E-04 -.455E-03 -.395E-04
   0.110E+03 0.201E+03 -.536E+01   -.120E+03 -.219E+03 0.526E+01   0.102E+02 0.175E+02 0.973E-01   -.120E-03 -.351E-03 0.129E-03
   0.654E-02 0.815E+02 0.150E+03   0.119E+00 -.971E+02 -.162E+03   -.126E+00 0.156E+02 0.114E+02   0.584E-04 0.143E-03 -.248E-04
   0.236E+03 0.648E+00 0.949E+01   -.257E+03 0.860E+00 -.882E+01   0.206E+02 -.151E+01 -.666E+00   -.148E-04 -.798E-04 -.237E-03
   0.976E+01 -.635E+02 -.466E+02   -.939E+01 0.628E+02 0.458E+02   -.373E+00 0.783E+00 0.819E+00   -.518E-04 0.249E-04 0.216E-04
   0.426E+01 0.702E+02 0.427E+02   -.424E+01 -.695E+02 -.425E+02   -.156E-01 -.618E+00 -.231E+00   -.705E-04 -.204E-03 -.143E-04
   -.541E+02 -.410E+02 0.492E+02   0.543E+02 0.403E+02 -.486E+02   -.220E+00 0.705E+00 -.604E+00   0.955E-04 0.685E-04 -.839E-04
   0.598E+02 0.393E+02 -.397E+02   -.595E+02 -.387E+02 0.391E+02   -.251E+00 -.612E+00 0.604E+00   -.556E-04 0.252E-05 -.658E-04
   -.102E+02 0.595E+02 0.391E+02   0.107E+02 -.598E+02 -.386E+02   -.568E+00 0.350E+00 -.451E+00   0.219E-03 -.941E-04 0.307E-05
   -.616E+02 0.254E+02 -.415E+02   0.616E+02 -.248E+02 0.411E+02   0.327E-01 -.549E+00 0.413E+00   0.170E-03 0.804E-05 -.254E-04
   -.679E+02 0.287E+02 -.370E+02   0.674E+02 -.286E+02 0.366E+02   0.510E+00 -.142E+00 0.412E+00   0.128E-03 -.441E-04 -.673E-04
   -.109E+02 -.665E+02 -.458E+02   0.109E+02 0.662E+02 0.455E+02   -.655E-02 0.308E+00 0.288E+00   0.114E-03 0.106E-03 -.385E-06
   -.606E+02 0.375E+02 -.418E+02   0.603E+02 -.370E+02 0.412E+02   0.297E+00 -.465E+00 0.683E+00   0.662E-04 -.265E-04 0.469E-04
   0.293E+01 -.710E+02 -.422E+02   -.294E+01 0.704E+02 0.415E+02   0.120E-01 0.611E+00 0.682E+00   0.265E-05 0.773E-04 0.464E-04
   0.615E+02 0.265E+02 -.483E+02   -.606E+02 -.265E+02 0.476E+02   -.893E+00 0.944E-02 0.689E+00   0.807E-06 0.107E-05 0.457E-05
   -.538E+02 0.252E+02 -.422E+02   0.537E+02 -.258E+02 0.426E+02   0.112E+00 0.631E+00 -.407E+00   -.122E-04 -.217E-04 0.767E-04
   -.744E+01 -.713E+02 -.401E+02   0.703E+01 0.710E+02 0.395E+02   0.414E+00 0.335E+00 0.593E+00   0.365E-04 0.120E-03 0.502E-05
   -.609E+02 0.418E+02 -.408E+02   0.608E+02 -.416E+02 0.407E+02   0.791E-01 -.223E+00 0.143E+00   0.185E-03 -.101E-03 0.768E-04
   0.616E+02 -.264E+02 0.420E+02   -.600E+02 0.265E+02 -.413E+02   -.163E+01 -.617E-01 -.742E+00   0.140E-04 0.515E-04 -.195E-04
   -.983E+01 -.606E+02 -.376E+02   0.109E+02 0.594E+02 0.371E+02   -.109E+01 0.112E+01 0.564E+00   0.526E-04 0.291E-05 0.552E-04
   0.520E+02 0.426E+02 -.474E+02   -.514E+02 -.421E+02 0.472E+02   -.615E+00 -.542E+00 0.156E+00   0.802E-05 -.145E-03 0.102E-03
   0.115E+02 0.636E+02 0.332E+02   -.102E+02 -.599E+02 -.339E+02   -.135E+01 -.375E+01 0.694E+00   -.138E-05 0.259E-04 -.832E-05
   -.679E+02 -.219E+02 0.529E+02   0.677E+02 0.220E+02 -.527E+02   0.216E+00 -.111E+00 -.177E+00   0.150E-03 -.238E-04 -.186E-03
   0.638E+02 0.252E+02 -.416E+02   -.633E+02 -.251E+02 0.405E+02   -.502E+00 -.132E+00 0.117E+01   -.366E-04 -.477E-04 -.152E-03
   0.862E+01 -.237E+02 -.415E+02   -.689E+01 0.218E+02 0.393E+02   -.173E+01 0.188E+01 0.224E+01   -.715E-04 -.152E-03 0.754E-04
   0.559E+02 0.415E+02 -.393E+02   -.573E+02 -.426E+02 0.394E+02   0.138E+01 0.106E+01 -.117E+00   -.194E-03 -.176E-03 0.131E-03
   0.418E+02 -.391E+02 0.412E+02   -.412E+02 0.387E+02 -.404E+02   -.633E+00 0.409E+00 -.802E+00   0.167E-03 0.388E-04 0.215E-04
   -.574E+02 -.411E+02 0.433E+02   0.573E+02 0.408E+02 -.431E+02   0.913E-01 0.266E+00 -.217E+00   0.108E-03 0.129E-03 -.623E-04
   0.650E+02 -.167E+02 0.593E+02   -.645E+02 0.166E+02 -.596E+02   -.508E+00 0.330E-01 0.336E+00   -.913E-04 -.856E-04 -.133E-03
   -.454E+02 0.441E+02 -.459E+02   0.464E+02 -.439E+02 0.421E+02   -.103E+01 -.134E+00 0.376E+01   0.664E-04 -.206E-03 -.611E-04
   0.639E+02 -.298E+02 0.462E+02   -.633E+02 0.298E+02 -.456E+02   -.569E+00 0.427E-02 -.566E+00   -.119E-03 0.842E-04 -.826E-04
   -.449E+01 0.692E+02 0.403E+02   0.360E+01 -.693E+02 -.405E+02   0.897E+00 0.701E-01 0.117E+00   -.442E-05 -.229E-03 -.936E-04
   0.104E+02 0.682E+02 0.494E+02   -.100E+02 -.679E+02 -.488E+02   -.332E+00 -.305E+00 -.652E+00   -.910E-04 -.383E-04 -.338E-04
   -.631E+02 -.312E+02 0.427E+02   0.627E+02 0.313E+02 -.428E+02   0.392E+00 -.138E+00 0.870E-01   0.169E-03 0.141E-03 -.145E-03
   0.588E+02 -.379E+02 0.490E+02   -.585E+02 0.371E+02 -.488E+02   -.342E+00 0.733E+00 -.266E+00   -.124E-03 -.302E-04 0.270E-04
   0.604E+02 -.414E+02 0.410E+02   -.603E+02 0.407E+02 -.409E+02   -.177E+00 0.631E+00 -.781E-01   -.106E-03 0.591E-04 -.946E-04
   -.468E+02 -.237E+02 0.328E+02   0.488E+02 0.208E+02 -.336E+02   -.196E+01 0.281E+01 0.787E+00   -.155E-04 -.115E-03 0.364E-04
   -.723E+01 0.687E+02 0.494E+02   0.694E+01 -.684E+02 -.488E+02   0.291E+00 -.273E+00 -.652E+00   -.266E-04 -.872E-04 0.229E-04
   0.640E+02 0.318E+02 -.448E+02   -.631E+02 -.317E+02 0.442E+02   -.844E+00 -.800E-01 0.570E+00   -.173E-03 0.330E-05 0.842E-04
 -----------------------------------------------------------------------------------------------
   -.276E+01 -.220E+02 -.383E+01   -.568E-12 0.401E-12 -.426E-13   0.271E+01 0.220E+02 0.382E+01   0.882E-03 -.377E-02 -.708E-03
 
 
 POSITION                                       TOTAL-FORCE (eV/Angst)
 -----------------------------------------------------------------------------------
      3.07150      7.92668      8.40803        -0.012123     -0.010205      0.014169
      5.44545      9.11377      7.43369        -0.005902     -0.020090     -0.005431
      5.71419      9.39020      6.40655         0.004832     -0.020483     -0.005106
      6.33505      8.94981      8.05074        -0.003707     -0.010222     -0.000103
      4.79617      9.88397      7.86068        -0.011673     -0.004927     -0.007076
     -2.07322      3.93487     12.39712         0.014213     -0.000771      0.000031
     -0.03447      5.04996      7.99829        -0.001402      0.010482      0.011469
      6.85916      1.12645      3.02446        -0.000618      0.008203      0.012836
      6.82049      9.02008     12.90298        -0.000859      0.007406      0.013613
      2.40090      6.48994     11.94978        -0.007160      0.002972     -0.012777
     -4.36356     10.44229      1.97499        -0.007348      0.004885     -0.012242
     -2.51229      6.48497     11.92003         0.005029      0.004960     -0.013039
      4.40377      2.56480      6.84492         0.006159      0.001611     -0.015061
      4.41536     10.48163      2.03885         0.008078      0.003753     -0.012267
     -2.47984      9.34813      7.96923         0.006085     -0.003852      0.013696
     11.66870      1.18589      1.84060        -0.002222      0.002280     -0.010359
      2.44004      1.41209     12.89819        -0.007296     -0.004500      0.012971
      9.02001      5.17648      6.70318         0.003967      0.002061     -0.011820
     -0.03902     10.36350      8.06985        -0.001260      0.002621      0.009679
     11.30782      3.76287      2.43932        -0.007579     -0.011700      0.000146
      8.88624      0.09048      7.51893        -0.012964     -0.000308     -0.001933
      9.23767      7.74002      7.44537         0.000672     -0.010408      0.000344
      2.41378      3.71483      2.47175         0.007357     -0.012647     -0.000541
      8.92679      7.88800      2.43186        -0.014017     -0.000231      0.000859
      2.31745      4.00675      7.46156         0.006003      0.011587     -0.000490
      9.26649      0.20703      2.49685         0.006727      0.012991      0.002585
      2.36525     11.65189     12.44657         0.007381     -0.013229      0.000517
     11.33179      4.11351      7.45811        -0.006745      0.011844     -0.000781
      9.27057      2.58291      6.90106        -0.007790      0.003623     -0.012541
      4.45978      0.24090      2.44010        -0.006811      0.013545      0.000804
      9.34978      5.37673      3.07795        -0.006912     -0.003003      0.017405
      1.98809      3.94566     12.40042        -0.014681     -0.000900     -0.000585
     -0.03793     10.74157     11.92114        -0.000888     -0.008363     -0.011800
     -3.60149      7.89894      9.92365         0.012655      0.000246      0.001225
      8.65576      0.83980      4.98142        -0.007276      0.014331      0.001006
      8.59920      8.80757     14.88100        -0.007108      0.013384     -0.000137
      1.72438     11.04788      9.95854        -0.008034     -0.010968      0.000398
      8.61291      7.15025      4.93930        -0.012591     -0.008805      0.000780
      1.76483      3.06452     14.88010        -0.007756     -0.012807     -0.000711
      3.25522      4.06433      4.96063         0.014889      0.001206     -0.000655
      6.89788      6.65128      6.91064        -0.000780     -0.003585     -0.011376
      3.27678     11.83961      0.02836         0.013712      0.000575     -0.000777
      2.43712      9.44267      7.93152        -0.000586     -0.001019      0.013760
      3.64755      7.87980     10.02740        -0.009734      0.003096     -0.003802
     -3.32937     11.88096     14.87425        -0.015256     -0.000704      0.000198
     -1.87556      4.83637      9.93041         0.008706      0.013904     -0.000918
      5.03783      0.78312      4.95643         0.008179      0.011751     -0.001273
      1.78050      4.82874      9.92507        -0.008802      0.012380     -0.000986
      5.12192      8.83366      0.06003         0.007333      0.011853      0.000791
      4.39899      5.37132      2.94064         0.007447     -0.003372      0.013119
     11.21871      1.39995     12.94445         0.007089     -0.004051      0.013748
     -1.82967     11.02146      9.93905         0.008543     -0.013583      0.001274
      4.65103      5.20587      6.92687        -0.001258      0.004541     -0.009108
      5.09952      6.97438      4.95017         0.010219     -0.009412      0.003133
     10.54639      3.88618      4.94775        -0.013748     -0.003558     -0.001320
      4.75399      0.02726      7.46841         0.014470     -0.000818     -0.000450
     -2.44486     11.65807     12.41079        -0.007236     -0.013106     -0.000888
      6.88939      9.53663      1.92455         0.000319     -0.003775     -0.009197
     -2.08327      9.08881     11.76594        -0.002735      0.001235     -0.010953
     -0.00872      2.84085      1.96961         0.000328     -0.007368     -0.013333
      6.82405      1.59957      6.76630        -0.000125     -0.002090     -0.010948
     -0.04547      5.54632     11.74158        -0.001097     -0.002460     -0.009298
      2.01799      1.14996      1.84287         0.001814      0.000265     -0.011527
     -1.79058      3.09949     14.87753         0.007943     -0.012762     -0.001696
     -4.86813     10.70605     13.02740         0.001854     -0.001998      0.010565
      4.79268     10.69160     13.05444        -0.001720     -0.002107      0.012833
      2.11611      6.59660      7.91885         0.007212      0.000563      0.009439
      2.02249      9.09115     11.78207         0.001969      0.003098     -0.011274
      6.87879      6.29669      3.09435         0.000134      0.004038      0.010526
     -2.09897      6.71760      8.04932        -0.003997     -0.000873      0.009672
      4.81166      2.78130      3.20344        -0.001150     -0.001963      0.012210
      4.65874      7.85976      7.39587        -0.004849     -0.011842     -0.002341
      8.91571      2.77452      3.14854         0.002010     -0.000766      0.010393
      4.37435      8.09016     12.56070        -0.005135      0.014041      0.002525
     -4.49594      8.13367     12.40142         0.006677      0.012243     -0.000256
     -0.03228      2.31795     13.03969        -0.000673      0.002396      0.010526
      4.83788      7.93900      2.52226         0.014685      0.000933      0.002680
      1.52948     10.61621     11.51270         0.006542     -0.027780     -0.020573
      8.38181      9.16890     13.30700         0.003672      0.029906      0.020428
     10.02429      3.94129      3.40667        -0.020735     -0.017922      0.021096
      3.72272     11.88040      1.59025         0.023019      0.017505     -0.018565
     -1.59382      5.19401      8.36974        -0.001466      0.028562      0.019272
      1.53294      5.20906     11.48680        -0.026314      0.009931     -0.019464
     -5.28951      9.17640      1.56743        -0.027169      0.011448     -0.018756
     -1.59408     10.62221     11.50020        -0.004655     -0.028554     -0.020386
     -3.74099     11.88014      1.55469        -0.025674      0.016559     -0.020388
      1.55102      2.68762      1.55731         0.002587     -0.027860     -0.020155
     -1.61428      5.20133     11.49417         0.028260      0.009849     -0.021764
      8.40172      1.26833      6.53517        -0.023472      0.009773     -0.021071
     12.16007      2.71202      1.54877        -0.003850     -0.030228     -0.018855
     10.04902      3.93520      6.49596        -0.022807      0.017186     -0.019669
     -1.60455     10.66055      8.36840         0.026712     -0.012412      0.018612
      8.47304      6.67890      6.48916        -0.006162     -0.017743     -0.015862
     -3.16792      7.90529     11.49759         0.022486      0.018127     -0.021193
      1.55013      5.15903      8.33975         0.000474      0.025218      0.021476
      8.44098      6.67498      3.38565        -0.027434     -0.008544      0.022306
      5.32056      9.20412      1.62263         0.026310      0.011754     -0.016464
      5.34359      6.59076      6.49790        -0.001472     -0.018604     -0.018414
      3.64181      3.95461      6.53935         0.023704      0.015469     -0.020018
     -3.14914      7.92475      8.35959         0.017228     -0.014517      0.019263
     -3.77215     11.88130     13.30770        -0.023722     -0.018047      0.020397
      5.30959      6.64000      3.35988         0.026941     -0.005289      0.026233
      3.11881      7.89340     11.54054        -0.017941      0.019572     -0.024133
     12.13375      2.68353     13.31313         0.026262     -0.010900      0.020801
      5.26914      9.16222     13.36340        -0.004021      0.028174      0.018127
      8.42656      1.24075      3.42034         0.006577      0.027340      0.019809
      1.53310      2.69022     13.30908        -0.026155     -0.010585      0.020000
      3.71570      3.96900      3.39943         0.021560     -0.017002      0.022871
      3.69487     11.86183     13.34328         0.022821     -0.018441      0.022584
      1.53863     10.68101      8.37629        -0.016713     -0.012595      0.016830
      5.28993      1.23563      3.41129        -0.004308      0.028191      0.021121
      5.26036      1.23340      6.50801         0.025826      0.011190     -0.020246
 -----------------------------------------------------------------------------------
    total drift:                               -0.048847     -0.051609     -0.013842


--------------------------------------------------------------------------------------------------------



  FREE ENERGIE OF THE ION-ELECTRON SYSTEM (eV)
  ---------------------------------------------------
  free  energy   TOTEN  =      -882.70710275 eV

  energy  without entropy=     -882.70710275  energy(sigma->0) =     -882.70710275
 


--------------------------------------------------------------------------------------------------------


    POTLOK:  cpu time    0.1802: real time    0.1806


--------------------------------------------------------------------------------------------------------


     LOOP+:  cpu time   52.9130: real time   53.1726
    4ORBIT:  cpu time    0.0000: real time    0.0000

 total amount of memory used by VASP on root node    53522. kBytes
========================================================================

   base      :      30000. kBytes
   nonlr-proj:       5696. kBytes
   fftplans  :       4343. kBytes
   grid      :       8131. kBytes
   one-center:         58. kBytes
   wavefun   :       5294. kBytes
 
  
  
 General timing and accounting informations for this job:
 ========================================================
  
                  Total CPU time used (sec):       55.774
                            User time (sec):       53.224
                          System time (sec):        2.550
                         Elapsed time (sec):       57.160
  
                   Maximum memory used (kb):      229844.
                   Average memory used (kb):           0.
  
                          Minor page faults:        85746
                          Major page faults:           11
                 Voluntary context switches:         3440
