unknown system                          
           1
    13.729572   -0.004625   -0.001411
    -6.868739   11.890915    0.001820
    -0.001511    0.001307   14.890378
   Al   C    H    O    Si
   1   1   3  72  35
Direct configuration=     1
   0.55735376  0.66677092  0.56463331
   0.78024562  0.76669660  0.49920801
   0.81145235  0.78996388  0.43022809
   0.83815621  0.75292644  0.54065457
   0.76535915  0.83146003  0.52787422
   0.01459726  0.33082845  0.83251986
   0.21002770  0.42471321  0.53711274
   0.54710116  0.09492254  0.20315513
   0.87649459  0.75881452  0.86652204
   0.44805408  0.54587548  0.80249280
   0.12154874  0.87820692  0.13253964
   0.08992057  0.54531840  0.80046091
   0.42876854  0.21581002  0.45970143
   0.76274597  0.88176416  0.13688851
   0.21275549  0.78618120  0.53511728
   0.89997120  0.10006718  0.12368298
   0.23722624  0.11875053  0.86621792
   0.87496240  0.43562144  0.45019830
   0.43329732  0.87165697  0.54188509
   0.98212637  0.31681325  0.16387269
   0.65119462  0.00780654  0.50501315
   0.99869910  0.65125234  0.50002705
   0.33217704  0.31252037  0.16598948
   0.98226022  0.66372793  0.16332976
   0.33746209  0.33703503  0.50109019
   0.68378204  0.01765822  0.16774498
   0.66268050  0.98006404  0.83582334
   0.99864649  0.34627048  0.50092032
   0.78407586  0.21747128  0.46350527
   0.33504023  0.02037164  0.16390051
   0.90739947  0.45250177  0.20673785
   0.31091598  0.33185089  0.83276937
   0.44930069  0.90342969  0.80052556
   0.07006724  0.66423789  0.66637262
   0.66592704  0.07084720  0.33459416
   0.99713772  0.74097517  0.99937410
   0.59056654  0.92925868  0.66873285
   0.92835753  0.60164496  0.33172560
   0.25758142  0.25770941  0.99930273
   0.40819221  0.34192333  0.33314016
   0.78242862  0.55961149  0.46410694
   0.73693857  0.99597138  0.00185273
   0.57493272  0.79427326  0.53261796
   0.59735208  0.66283189  0.67339063
   0.25747800  0.99915299  0.99881942
   0.06692347  0.40668122  0.66685793
   0.39997711  0.06597728  0.33289090
   0.33294481  0.40614234  0.66652457
   0.74486238  0.74318101  0.00401138
   0.54650817  0.45190695  0.19748222
   0.87623855  0.11797790  0.86938475
   0.33054332  0.92693570  0.66739952
   0.55792120  0.43796809  0.46519054
   0.66500717  0.58675198  0.33243186
   0.93185470  0.32714552  0.33232647
   0.34750152  0.00237233  0.50159181
   0.31252555  0.98044785  0.83338670
   0.90321056  0.80234663  0.12923513
   0.23074678  0.76435212  0.79009923
   0.11891861  0.23894119  0.13225609
   0.56446686  0.13468961  0.45444435
   0.23012744  0.46643642  0.78849919
   0.19540825  0.09677156  0.12376936
   0.00004274  0.26055061  0.99910561
   0.09593105  0.90029688  0.87478636
   0.79910981  0.89935452  0.87666863
   0.43178055  0.55486898  0.53178284
   0.52994902  0.76466508  0.79121056
   0.76610154  0.52981285  0.20781634
   0.12980594  0.56492652  0.54051510
   0.46758037  0.23405926  0.21515035
   0.67016384  0.66119479  0.49667058
   0.76627391  0.23360623  0.21149185
   0.65916102  0.68052846  0.84352421
   0.01479383  0.68393785  0.83276593
   0.09523901  0.19487520  0.87569741
   0.68653082  0.66790082  0.16937210
   0.55820843  0.89293232  0.77310718
   0.99650043  0.77137404  0.89366419
   0.89613347  0.33177740  0.22882778
   0.77114768  0.99940415  0.10674785
   0.10249243  0.43678257  0.56204652
   0.33092094  0.43811449  0.77140195
   0.00082168  0.77170401  0.10517061
   0.33091135  0.89334884  0.77224648
   0.22740770  0.99917068  0.10430828
   0.22609558  0.22609930  0.10457856
   0.10132135  0.43737493  0.77187570
   0.66545976  0.10687416  0.43893534
   0.99998804  0.22845259  0.10407806
   0.89769056  0.33124323  0.43629650
   0.33175023  0.89659619  0.56192238
   0.89833878  0.56198270  0.43581229
   0.10192562  0.66477252  0.77207748
   0.33005583  0.43392987  0.56005479
   0.89582719  0.56167469  0.22738784
   0.77492870  0.77433578  0.10895022
   0.66665030  0.55447992  0.43637820
   0.43174364  0.33269355  0.43916613
   0.10410121  0.66643325  0.56133741
   0.22523020  0.99918042  0.89361025
   0.66623410  0.55864365  0.22563575
   0.55941183  0.66395050  0.77500548
   0.99691529  0.22596859  0.89414312
   0.76946262  0.77072338  0.89743063
   0.66609669  0.10457813  0.22975143
   0.22494326  0.22623114  0.89379775
   0.43772051  0.33392909  0.22829788
   0.76838075  0.99775396  0.89605138
   0.56159007  0.89840587  0.56247373
   0.43737939  0.10405896  0.22912221
   0.43514308  0.10384777  0.43708996
