 running on   48 total cores
 distrk:  each k-point on   48 cores,    1 groups
 distr:  one band on    6 cores,    8 groups
 using from now: INCAR     
 vasp.5.4.1 05Feb16 (build Feb 08 2018 09:21:51) complex                        
  
 POSCAR found :  5 types and     112 ions
 LDA part: xc-table for Pade appr. of Perdew
 POSCAR, INCAR and KPOINTS ok, starting setup
 WARNING: small aliasing (wrap around) errors must be expected
 FFT: planning ...
 WAVECAR not read
 entering main loop
       N       E                     dE             d eps       ncg     rms          rms(c)
DAV:   1     0.447968943709E+04    0.44797E+04   -0.24477E+05   752   0.116E+03
DAV:   2    -0.405917609981E+03   -0.48856E+04   -0.47764E+04   872   0.327E+02
DAV:   3    -0.972823152448E+03   -0.56691E+03   -0.56474E+03   816   0.120E+02
DAV:   4    -0.986163913638E+03   -0.13341E+02   -0.13300E+02   832   0.199E+01
DAV:   5    -0.986560199404E+03   -0.39629E+00   -0.39581E+00   832   0.312E+00    0.858E+01
DAV:   6    -0.869706260162E+03    0.11685E+03   -0.50817E+02   800   0.355E+01    0.399E+01
DAV:   7    -0.869061018983E+03    0.64524E+00   -0.17188E+01   920   0.639E+00    0.151E+01
DAV:   8    -0.868523956222E+03    0.53706E+00   -0.13038E+00   816   0.241E+00    0.611E+00
DAV:   9    -0.868353717405E+03    0.17024E+00   -0.45969E-01   832   0.157E+00    0.101E+00
DAV:  10    -0.868353284119E+03    0.43329E-03   -0.11623E-01   808   0.727E-01    0.740E-01
DAV:  11    -0.868352967814E+03    0.31630E-03   -0.18950E-02   784   0.270E-01    0.374E-01
DAV:  12    -0.868358518409E+03   -0.55506E-02   -0.82704E-03   792   0.246E-01    0.145E-01
DAV:  13    -0.868370203256E+03   -0.11685E-01   -0.60214E-03   808   0.246E-01    0.221E-01
DAV:  14    -0.868378953380E+03   -0.87501E-02   -0.53307E-03   800   0.181E-01    0.100E-01
DAV:  15    -0.868381695545E+03   -0.27422E-02   -0.12870E-03   832   0.913E-02    0.614E-02
DAV:  16    -0.868383053288E+03   -0.13577E-02   -0.24794E-04   800   0.322E-02    0.561E-02
DAV:  17    -0.868383342163E+03   -0.28887E-03   -0.10120E-04   808   0.202E-02    0.336E-02
DAV:  18    -0.868383736928E+03   -0.39477E-03   -0.48477E-05   768   0.141E-02    0.146E-02
DAV:  19    -0.868383795897E+03   -0.58969E-04   -0.23046E-05   784   0.119E-02    0.645E-03
DAV:  20    -0.868383814512E+03   -0.18615E-04   -0.58440E-06   752   0.467E-03    0.453E-03
DAV:  21    -0.868383832528E+03   -0.18016E-04   -0.17326E-06   544   0.314E-03    0.375E-03
DAV:  22    -0.868383837268E+03   -0.47393E-05   -0.93438E-07   512   0.212E-03    0.137E-03
DAV:  23    -0.868383838208E+03   -0.93995E-06   -0.45968E-07   528   0.135E-03
   1 F= -.86838384E+03 E0= -.86838384E+03  d E =-.868384E+03
 curvature:   0.00 expect dE= 0.000E+00 dE for cont linesearch  0.000E+00
 trial: gam= 0.00000 g(F)=  0.914E+01 g(S)=  0.000E+00 ort = 0.000E+00 (trialstep = 0.100E+01)
 search vector abs. value=  0.914E+01
 bond charge predicted
       N       E                     dE             d eps       ncg     rms          rms(c)
DAV:   1    -0.861476623754E+03    0.69072E+01   -0.13576E+03   720   0.579E+01    0.200E+01
DAV:   2    -0.865777965702E+03   -0.43013E+01   -0.57802E+01   816   0.119E+01    0.606E+00
DAV:   3    -0.864735379888E+03    0.10426E+01   -0.22415E+00   824   0.309E+00    0.298E+00
DAV:   4    -0.864439125557E+03    0.29625E+00   -0.11391E+00   808   0.216E+00    0.120E+00
DAV:   5    -0.864401162817E+03    0.37963E-01   -0.26632E-01   936   0.147E+00    0.890E-01
DAV:   6    -0.864389817062E+03    0.11346E-01   -0.72749E-02   808   0.641E-01    0.533E-01
DAV:   7    -0.864380725894E+03    0.90912E-02   -0.83243E-03   816   0.314E-01    0.323E-01
DAV:   8    -0.864373688496E+03    0.70374E-02   -0.93910E-03   848   0.471E-01    0.209E-01
DAV:   9    -0.864373768436E+03   -0.79940E-04   -0.10427E-02   816   0.259E-01    0.115E-01
DAV:  10    -0.864374351256E+03   -0.58282E-03   -0.26606E-03   808   0.112E-01    0.109E-01
DAV:  11    -0.864374775924E+03   -0.42467E-03   -0.39918E-04   800   0.679E-02    0.472E-02
DAV:  12    -0.864375525825E+03   -0.74990E-03   -0.43804E-04   816   0.943E-02    0.336E-02
DAV:  13    -0.864375740900E+03   -0.21508E-03   -0.38661E-04   808   0.440E-02    0.206E-02
DAV:  14    -0.864375832742E+03   -0.91842E-04   -0.28372E-05   800   0.103E-02    0.190E-02
DAV:  15    -0.864375963424E+03   -0.13068E-03   -0.15455E-05   752   0.827E-03    0.776E-03
DAV:  16    -0.864376084122E+03   -0.12070E-03   -0.19625E-05   752   0.101E-02    0.577E-03
DAV:  17    -0.864376103368E+03   -0.19246E-04   -0.67386E-06   776   0.584E-03    0.456E-03
DAV:  18    -0.864376109477E+03   -0.61094E-05   -0.52794E-07   520   0.179E-03    0.352E-03
DAV:  19    -0.864376121429E+03   -0.11951E-04   -0.13034E-06   528   0.219E-03    0.159E-03
DAV:  20    -0.864376126802E+03   -0.53732E-05   -0.49839E-07   512   0.159E-03    0.858E-04
DAV:  21    -0.864376128526E+03   -0.17244E-05   -0.33138E-07   504   0.162E-03    0.778E-04
DAV:  22    -0.864376128970E+03   -0.44357E-06   -0.11037E-07   520   0.832E-04
   2 F= -.86437613E+03 E0= -.86437613E+03  d E =0.400771E+01
 trial-energy change:    4.007709  1 .order    4.759164   -9.135260   18.653589
 step:   0.3664(harm=  0.3287)  dis= 0.09540  next Energy=  -870.094405 (dE=-0.171E+01)
 bond charge predicted
       N       E                     dE             d eps       ncg     rms          rms(c)
DAV:   1    -0.869035789790E+03   -0.46597E+01   -0.54531E+02   704   0.402E+01    0.107E+01
DAV:   2    -0.870561259629E+03   -0.15255E+01   -0.22537E+01   816   0.710E+00    0.431E+00
DAV:   3    -0.870155768670E+03    0.40549E+00   -0.69390E-01   824   0.202E+00    0.271E+00
DAV:   4    -0.870022648103E+03    0.13312E+00   -0.91633E-01   808   0.243E+00    0.109E+00
DAV:   5    -0.870022880241E+03   -0.23214E-03   -0.23168E-01   816   0.920E-01    0.900E-01
DAV:   6    -0.870015355127E+03    0.75251E-02   -0.40398E-02   808   0.347E-01    0.410E-01
DAV:   7    -0.870012156828E+03    0.31983E-02   -0.32853E-03   808   0.215E-01    0.216E-01
DAV:   8    -0.870010908970E+03    0.12479E-02   -0.42362E-03   896   0.311E-01    0.748E-02
DAV:   9    -0.870012160320E+03   -0.12513E-02   -0.40547E-03   816   0.165E-01    0.826E-02
DAV:  10    -0.870012628424E+03   -0.46810E-03   -0.48066E-04   808   0.463E-02    0.699E-02
DAV:  11    -0.870013105230E+03   -0.47681E-03   -0.16467E-04   776   0.393E-02    0.327E-02
DAV:  12    -0.870013738916E+03   -0.63369E-03   -0.55322E-04   800   0.740E-02    0.498E-02
DAV:  13    -0.870013891180E+03   -0.15226E-03   -0.33975E-04   808   0.376E-02    0.265E-02
DAV:  14    -0.870013920111E+03   -0.28931E-04   -0.24146E-05   880   0.106E-02    0.188E-02
DAV:  15    -0.870013996300E+03   -0.76189E-04   -0.16462E-05   752   0.839E-03    0.994E-03
DAV:  16    -0.870014052450E+03   -0.56150E-04   -0.19787E-05   784   0.909E-03    0.827E-03
DAV:  17    -0.870014070436E+03   -0.17986E-04   -0.65296E-06   752   0.680E-03    0.750E-03
DAV:  18    -0.870014082163E+03   -0.11727E-04   -0.16857E-06   520   0.277E-03    0.461E-03
DAV:  19    -0.870014092553E+03   -0.10389E-04   -0.18921E-06   576   0.266E-03    0.170E-03
DAV:  20    -0.870014096124E+03   -0.35718E-05   -0.48012E-07   496   0.168E-03    0.117E-03
DAV:  21    -0.870014097837E+03   -0.17122E-05   -0.49569E-07   512   0.151E-03    0.145E-03
DAV:  22    -0.870014098411E+03   -0.57482E-06   -0.18419E-07   512   0.125E-03
   3 F= -.87001410E+03 E0= -.87001410E+03  d E =-.163026E+01
 curvature:  -0.16 expect dE=-0.689E+00 dE for cont linesearch -0.562E-03
 trial: gam= 0.47982 g(F)=  0.421E+01 g(S)=  0.000E+00 ort =-0.177E+00 (trialstep = 0.873E+00)
 search vector abs. value=  0.614E+01
 bond charge predicted
       N       E                     dE             d eps       ncg     rms          rms(c)
DAV:   1    -0.870618925391E+03   -0.60483E+00   -0.20026E+02   736   0.258E+01    0.469E+00
DAV:   2    -0.871061712103E+03   -0.44279E+00   -0.58690E+00   816   0.387E+00    0.276E+00
DAV:   3    -0.870977467122E+03    0.84245E-01   -0.18147E-01   808   0.923E-01    0.164E+00
DAV:   4    -0.870936855067E+03    0.40612E-01   -0.18994E-01   800   0.978E-01    0.544E-01
DAV:   5    -0.870929370704E+03    0.74844E-02   -0.49743E-02   896   0.549E-01    0.364E-01
DAV:   6    -0.870927136948E+03    0.22338E-02   -0.15263E-02   816   0.253E-01    0.224E-01
DAV:   7    -0.870926274513E+03    0.86244E-03   -0.20254E-03   824   0.132E-01    0.161E-01
DAV:   8    -0.870925569779E+03    0.70473E-03   -0.22393E-03   848   0.203E-01    0.572E-02
DAV:   9    -0.870925900078E+03   -0.33030E-03   -0.18455E-03   848   0.127E-01    0.627E-02
DAV:  10    -0.870926239089E+03   -0.33901E-03   -0.77329E-04   792   0.569E-02    0.428E-02
DAV:  11    -0.870926440821E+03   -0.20173E-03   -0.79189E-05   800   0.269E-02    0.257E-02
DAV:  12    -0.870926731384E+03   -0.29056E-03   -0.10053E-04   784   0.322E-02    0.146E-02
DAV:  13    -0.870926785250E+03   -0.53867E-04   -0.58852E-05   808   0.162E-02    0.116E-02
DAV:  14    -0.870926817409E+03   -0.32158E-04   -0.13478E-05   864   0.955E-03    0.697E-03
DAV:  15    -0.870926836218E+03   -0.18809E-04   -0.34075E-06   648   0.442E-03    0.468E-03
DAV:  16    -0.870926855522E+03   -0.19304E-04   -0.45010E-06   672   0.500E-03    0.268E-03
DAV:  17    -0.870926859146E+03   -0.36242E-05   -0.94244E-07   528   0.241E-03    0.268E-03
DAV:  18    -0.870926861032E+03   -0.18859E-05   -0.53982E-07   512   0.187E-03    0.131E-03
DAV:  19    -0.870926862743E+03   -0.17111E-05   -0.33629E-07   504   0.143E-03    0.624E-04
DAV:  20    -0.870926863097E+03   -0.35463E-06   -0.15965E-07   520   0.867E-04
   4 F= -.87092686E+03 E0= -.87092686E+03  d E =-.912765E+00
 trial-energy change:   -0.912765  1 .order   -1.041440   -3.599105    1.516225
 step:   0.5853(harm=  0.6144)  dis= 0.17119  next Energy=  -871.181478 (dE=-0.117E+01)
 bond charge predicted
       N       E                     dE             d eps       ncg     rms          rms(c)
DAV:   1    -0.871146247990E+03   -0.21939E+00   -0.22376E+01   704   0.799E+00    0.156E+00
DAV:   2    -0.871193523969E+03   -0.47276E-01   -0.62598E-01   824   0.125E+00    0.872E-01
DAV:   3    -0.871184720073E+03    0.88039E-02   -0.19358E-02   816   0.296E-01    0.518E-01
DAV:   4    -0.871180637282E+03    0.40828E-02   -0.26076E-02   800   0.332E-01    0.201E-01
DAV:   5    -0.871179769534E+03    0.86775E-03   -0.49770E-03   872   0.163E-01    0.140E-01
DAV:   6    -0.871179427096E+03    0.34244E-03   -0.22731E-03   816   0.102E-01    0.723E-02
DAV:   7    -0.871179308623E+03    0.11847E-03   -0.39117E-04   888   0.566E-02    0.504E-02
DAV:   8    -0.871179257004E+03    0.51619E-04   -0.16208E-04   840   0.579E-02    0.220E-02
DAV:   9    -0.871179325276E+03   -0.68272E-04   -0.17828E-04   824   0.489E-02    0.148E-02
DAV:  10    -0.871179400949E+03   -0.75674E-04   -0.98218E-05   808   0.256E-02    0.122E-02
DAV:  11    -0.871179419542E+03   -0.18593E-04   -0.14162E-05   808   0.810E-03    0.102E-02
DAV:  12    -0.871179434155E+03   -0.14613E-04   -0.27376E-06   592   0.340E-03    0.618E-03
DAV:  13    -0.871179453900E+03   -0.19745E-04   -0.38802E-06   672   0.568E-03    0.353E-03
DAV:  14    -0.871179458330E+03   -0.44300E-05   -0.19876E-06   576   0.392E-03    0.157E-03
DAV:  15    -0.871179460579E+03   -0.22488E-05   -0.77845E-07   504   0.220E-03    0.112E-03
DAV:  16    -0.871179461730E+03   -0.11509E-05   -0.23440E-07   520   0.106E-03    0.690E-04
DAV:  17    -0.871179462817E+03   -0.10872E-05   -0.23114E-07   496   0.997E-04    0.487E-04
DAV:  18    -0.871179462974E+03   -0.15760E-06   -0.64826E-08   520   0.634E-04
   5 F= -.87117946E+03 E0= -.87117946E+03  d E =-.116536E+01
 curvature:  -0.45 expect dE=-0.657E+00 dE for cont linesearch -0.348E-05
 trial: gam= 0.43002 g(F)=  0.145E+01 g(S)=  0.000E+00 ort = 0.688E-02 (trialstep = 0.816E+00)
 search vector abs. value=  0.260E+01
 bond charge predicted
       N       E                     dE             d eps       ncg     rms          rms(c)
DAV:   1    -0.871028089172E+03    0.15137E+00   -0.22184E+02   704   0.266E+01    0.547E+00
DAV:   2    -0.871441265518E+03   -0.41318E+00   -0.54820E+00   824   0.381E+00    0.180E+00
DAV:   3    -0.871351040401E+03    0.90225E-01   -0.16566E-01   832   0.100E+00    0.101E+00
DAV:   4    -0.871314868933E+03    0.36171E-01   -0.12056E-01   816   0.885E-01    0.298E-01
DAV:   5    -0.871314126009E+03    0.74292E-03   -0.39201E-02   832   0.468E-01    0.356E-01
DAV:   6    -0.871312857752E+03    0.12683E-02   -0.39094E-03   816   0.153E-01    0.238E-01
DAV:   7    -0.871311640852E+03    0.12169E-02   -0.48346E-04   856   0.937E-02    0.156E-01
DAV:   8    -0.871310313760E+03    0.13271E-02   -0.14955E-03   824   0.193E-01    0.674E-02
DAV:   9    -0.871310322470E+03   -0.87103E-05   -0.14959E-03   848   0.112E-01    0.435E-02
DAV:  10    -0.871310407560E+03   -0.85090E-04   -0.38542E-04   800   0.443E-02    0.428E-02
DAV:  11    -0.871310438009E+03   -0.30449E-04   -0.55022E-05   864   0.333E-02    0.272E-02
DAV:  12    -0.871310514348E+03   -0.76339E-04   -0.80930E-05   784   0.288E-02    0.107E-02
DAV:  13    -0.871310540167E+03   -0.25819E-04   -0.41565E-05   808   0.163E-02    0.939E-03
DAV:  14    -0.871310550010E+03   -0.98427E-05   -0.53233E-06   776   0.456E-03    0.677E-03
DAV:  15    -0.871310561176E+03   -0.11166E-04   -0.13079E-06   504   0.246E-03    0.378E-03
DAV:  16    -0.871310571363E+03   -0.10188E-04   -0.31972E-06   656   0.384E-03    0.312E-03
DAV:  17    -0.871310572938E+03   -0.15741E-05   -0.72337E-07   520   0.265E-03    0.212E-03
DAV:  18    -0.871310573312E+03   -0.37476E-06   -0.39863E-07   512   0.136E-03
   6 F= -.87131057E+03 E0= -.87131057E+03  d E =-.131110E+00
 trial-energy change:   -0.131110  1 .order   -0.139767   -1.188857    0.909323
 step:   0.4572(harm=  0.4622)  dis= 0.08685  next Energy=  -871.511125 (dE=-0.332E+00)
 bond charge predicted
       N       E                     dE             d eps       ncg     rms          rms(c)
DAV:   1    -0.871461062407E+03   -0.15049E+00   -0.42914E+01   704   0.120E+01    0.245E+00
DAV:   2    -0.871536076996E+03   -0.75015E-01   -0.10233E+00   824   0.167E+00    0.794E-01
DAV:   3    -0.871518206214E+03    0.17871E-01   -0.29112E-02   824   0.478E-01    0.448E-01
DAV:   4    -0.871511485653E+03    0.67206E-02   -0.29297E-02   808   0.458E-01    0.152E-01
DAV:   5    -0.871511517778E+03   -0.32124E-04   -0.82902E-03   824   0.194E-01    0.159E-01
DAV:   6    -0.871511159820E+03    0.35796E-03   -0.98583E-04   800   0.694E-02    0.867E-02
DAV:   7    -0.871510924408E+03    0.23541E-03   -0.11884E-04   944   0.534E-02    0.554E-02
DAV:   8    -0.871510719436E+03    0.20497E-03   -0.25057E-04   904   0.856E-02    0.202E-02
DAV:   9    -0.871510739090E+03   -0.19654E-04   -0.26934E-04   880   0.602E-02    0.206E-02
DAV:  10    -0.871510767156E+03   -0.28066E-04   -0.13104E-04   808   0.242E-02    0.215E-02
DAV:  11    -0.871510770635E+03   -0.34795E-05   -0.87280E-06   800   0.615E-03    0.171E-02
DAV:  12    -0.871510783784E+03   -0.13148E-04   -0.63276E-06   720   0.532E-03    0.896E-03
DAV:  13    -0.871510798680E+03   -0.14897E-04   -0.42174E-06   704   0.653E-03    0.472E-03
DAV:  14    -0.871510805752E+03   -0.70715E-05   -0.30307E-06   640   0.406E-03    0.242E-03
DAV:  15    -0.871510808384E+03   -0.26319E-05   -0.80690E-07   512   0.209E-03    0.940E-04
DAV:  16    -0.871510810329E+03   -0.19448E-05   -0.33241E-07   504   0.135E-03    0.682E-04
DAV:  17    -0.871510810926E+03   -0.59771E-06   -0.12277E-07   520   0.765E-04
   7 F= -.87151081E+03 E0= -.87151081E+03  d E =-.331348E+00
 curvature:  -0.41 expect dE=-0.333E+00 dE for cont linesearch -0.444E-07
 trial: gam= 0.54175 g(F)=  0.810E+00 g(S)=  0.000E+00 ort = 0.529E-03 (trialstep = 0.744E+00)
 search vector abs. value=  0.157E+01
 bond charge predicted
       N       E                     dE             d eps       ncg     rms          rms(c)
DAV:   1    -0.871595557661E+03   -0.84747E-01   -0.97851E+01   704   0.180E+01    0.266E+00
DAV:   2    -0.871776664062E+03   -0.18111E+00   -0.23219E+00   808   0.256E+00    0.129E+00
DAV:   3    -0.871748313184E+03    0.28351E-01   -0.62792E-02   832   0.556E-01    0.757E-01
DAV:   4    -0.871734377236E+03    0.13936E-01   -0.43928E-02   808   0.519E-01    0.208E-01
DAV:   5    -0.871734232985E+03    0.14425E-03   -0.13218E-02   824   0.275E-01    0.201E-01
DAV:   6    -0.871733957040E+03    0.27595E-03   -0.27329E-03   800   0.125E-01    0.130E-01
DAV:   7    -0.871733765095E+03    0.19195E-03   -0.19945E-04   824   0.723E-02    0.787E-02
DAV:   8    -0.871733696737E+03    0.68358E-04   -0.50475E-04   816   0.124E-01    0.280E-02
DAV:   9    -0.871733859776E+03   -0.16304E-03   -0.54424E-04   896   0.783E-02    0.280E-02
DAV:  10    -0.871733964022E+03   -0.10425E-03   -0.21696E-04   800   0.318E-02    0.306E-02
DAV:  11    -0.871733999856E+03   -0.35834E-04   -0.13263E-05   808   0.121E-02    0.217E-02
DAV:  12    -0.871734084551E+03   -0.84695E-04   -0.52540E-05   760   0.205E-02    0.869E-03
DAV:  13    -0.871734100649E+03   -0.16098E-04   -0.14614E-05   808   0.832E-03    0.560E-03
DAV:  14    -0.871734113988E+03   -0.13339E-04   -0.34730E-06   704   0.408E-03    0.203E-03
DAV:  15    -0.871734121344E+03   -0.73556E-05   -0.60945E-07   528   0.169E-03    0.127E-03
DAV:  16    -0.871734127298E+03   -0.59543E-05   -0.71176E-07   512   0.164E-03    0.112E-03
DAV:  17    -0.871734129062E+03   -0.17641E-05   -0.21065E-07   520   0.104E-03    0.875E-04
DAV:  18    -0.871734129925E+03   -0.86244E-06   -0.13674E-07   512   0.763E-04
   8 F= -.87173413E+03 E0= -.87173413E+03  d E =-.223319E+00
 trial-energy change:   -0.223319  1 .order   -0.230793   -0.602617    0.141031
 step:   0.5957(harm=  0.6029)  dis= 0.07509  next Energy=  -871.748241 (dE=-0.237E+00)
 bond charge predicted
       N       E                     dE             d eps       ncg     rms          rms(c)
DAV:   1    -0.871743260508E+03   -0.91314E-02   -0.38980E+00   704   0.360E+00    0.541E-01
DAV:   2    -0.871749943217E+03   -0.66827E-02   -0.86478E-02   816   0.499E-01    0.252E-01
DAV:   3    -0.871748854458E+03    0.10888E-02   -0.23789E-03   824   0.108E-01    0.148E-01
DAV:   4    -0.871748320700E+03    0.53376E-03   -0.17582E-03   808   0.101E-01    0.427E-02
DAV:   5    -0.871748296629E+03    0.24071E-04   -0.46764E-04   856   0.539E-02    0.386E-02
DAV:   6    -0.871748277387E+03    0.19242E-04   -0.13264E-04   808   0.288E-02    0.239E-02
DAV:   7    -0.871748264799E+03    0.12588E-04   -0.10226E-05   824   0.159E-02    0.147E-02
DAV:   8    -0.871748257551E+03    0.72476E-05   -0.13408E-05   808   0.229E-02    0.433E-03
DAV:   9    -0.871748263635E+03   -0.60832E-05   -0.16522E-05   832   0.162E-02    0.546E-03
DAV:  10    -0.871748269464E+03   -0.58297E-05   -0.11667E-05   792   0.814E-03    0.565E-03
DAV:  11    -0.871748270657E+03   -0.11923E-05   -0.73964E-07   520   0.215E-03    0.432E-03
DAV:  12    -0.871748273119E+03   -0.24628E-05   -0.86003E-07   496   0.277E-03    0.157E-03
DAV:  13    -0.871748274333E+03   -0.12141E-05   -0.50839E-07   512   0.163E-03    0.926E-04
DAV:  14    -0.871748274744E+03   -0.41064E-06   -0.13442E-07   512   0.919E-04
   9 F= -.87174827E+03 E0= -.87174827E+03  d E =-.237464E+00
 curvature:  -0.58 expect dE=-0.255E+00 dE for cont linesearch -0.574E-07
 trial: gam= 0.55120 g(F)=  0.437E+00 g(S)=  0.000E+00 ort =-0.393E-03 (trialstep = 0.714E+00)
 search vector abs. value=  0.915E+00
 bond charge predicted
       N       E                     dE             d eps       ncg     rms          rms(c)
DAV:   1    -0.871785746187E+03   -0.37472E-01   -0.71935E+01   704   0.160E+01    0.237E+00
DAV:   2    -0.871906722366E+03   -0.12098E+00   -0.15513E+00   808   0.212E+00    0.105E+00
DAV:   3    -0.871885655923E+03    0.21066E-01   -0.36270E-02   824   0.484E-01    0.615E-01
DAV:   4    -0.871876272396E+03    0.93835E-02   -0.40941E-02   816   0.540E-01    0.177E-01
DAV:   5    -0.871876622172E+03   -0.34978E-03   -0.12958E-02   816   0.236E-01    0.206E-01
DAV:   6    -0.871876276248E+03    0.34592E-03   -0.18495E-03   816   0.877E-02    0.127E-01
DAV:   7    -0.871876044717E+03    0.23153E-03   -0.13312E-04   848   0.555E-02    0.777E-02
DAV:   8    -0.871875916399E+03    0.12832E-03   -0.31347E-04   840   0.910E-02    0.220E-02
DAV:   9    -0.871876068911E+03   -0.15251E-03   -0.34277E-04   856   0.733E-02    0.233E-02
DAV:  10    -0.871876158591E+03   -0.89680E-04   -0.20395E-04   808   0.306E-02    0.237E-02
DAV:  11    -0.871876163742E+03   -0.51512E-05   -0.87719E-06   816   0.568E-03    0.211E-02
DAV:  12    -0.871876179991E+03   -0.16249E-04   -0.56752E-06   720   0.513E-03    0.152E-02
DAV:  13    -0.871876227605E+03   -0.47614E-04   -0.18675E-05   784   0.807E-03    0.916E-03
DAV:  14    -0.871876240681E+03   -0.13076E-04   -0.24893E-06   576   0.503E-03    0.564E-03
DAV:  15    -0.871876248663E+03   -0.79821E-05   -0.27942E-06   600   0.382E-03    0.167E-03
DAV:  16    -0.871876251342E+03   -0.26791E-05   -0.36209E-07   520   0.155E-03    0.117E-03
DAV:  17    -0.871876253338E+03   -0.19959E-05   -0.22677E-07   496   0.878E-04    0.865E-04
DAV:  18    -0.871876253849E+03   -0.51071E-06   -0.17483E-07   520   0.120E-03
  10 F= -.87187625E+03 E0= -.87187625E+03  d E =-.127979E+00
 trial-energy change:   -0.127979  1 .order   -0.128616   -0.312260    0.055028
 step:   0.6064(harm=  0.6073)  dis= 0.04525  next Energy=  -871.880415 (dE=-0.132E+00)
 bond charge predicted
       N       E                     dE             d eps       ncg     rms          rms(c)
DAV:   1    -0.871878400264E+03   -0.21469E-02   -0.16450E+00   704   0.241E+00    0.362E-01
DAV:   2    -0.871881115711E+03   -0.27154E-02   -0.34922E-02   808   0.319E-01    0.161E-01
DAV:   3    -0.871880633043E+03    0.48267E-03   -0.79700E-04   832   0.745E-02    0.939E-02
DAV:   4    -0.871880424491E+03    0.20855E-03   -0.10016E-03   808   0.857E-02    0.284E-02
DAV:   5    -0.871880430246E+03   -0.57552E-05   -0.30603E-04   808   0.357E-02    0.318E-02
DAV:   6    -0.871880420709E+03    0.95366E-05   -0.49279E-05   808   0.138E-02    0.186E-02
DAV:   7    -0.871880414026E+03    0.66834E-05   -0.26194E-06   608   0.866E-03    0.114E-02
DAV:   8    -0.871880409306E+03    0.47202E-05   -0.83430E-06   808   0.138E-02    0.324E-03
DAV:   9    -0.871880412013E+03   -0.27072E-05   -0.68099E-06   744   0.110E-02    0.305E-03
DAV:  10    -0.871880414065E+03   -0.20517E-05   -0.45375E-06   728   0.485E-03    0.328E-03
DAV:  11    -0.871880414170E+03   -0.10550E-06   -0.26529E-07   536   0.991E-04
  11 F= -.87188041E+03 E0= -.87188041E+03  d E =-.132139E+00
 curvature:  -0.64 expect dE=-0.173E+00 dE for cont linesearch -0.352E-08
 trial: gam= 0.61310 g(F)=  0.272E+00 g(S)=  0.000E+00 ort = 0.711E-04 (trialstep = 0.693E+00)
 search vector abs. value=  0.616E+00
 bond charge predicted
       N       E                     dE             d eps       ncg     rms          rms(c)
DAV:   1    -0.871919192891E+03   -0.38779E-01   -0.47308E+01   704   0.130E+01    0.173E+00
DAV:   2    -0.871993610097E+03   -0.74417E-01   -0.98853E-01   816   0.171E+00    0.839E-01
DAV:   3    -0.871981595174E+03    0.12015E-01   -0.23780E-02   816   0.379E-01    0.504E-01
DAV:   4    -0.871975537517E+03    0.60577E-02   -0.25911E-02   808   0.446E-01    0.155E-01
DAV:   5    -0.871975680741E+03   -0.14322E-03   -0.83891E-03   824   0.194E-01    0.164E-01
DAV:   6    -0.871975403466E+03    0.27728E-03   -0.13371E-03   808   0.754E-02    0.101E-01
DAV:   7    -0.871975151936E+03    0.25153E-03   -0.19076E-04   888   0.531E-02    0.457E-02
DAV:   8    -0.871975007246E+03    0.14469E-03   -0.19001E-04   888   0.690E-02    0.164E-02
DAV:   9    -0.871975010124E+03   -0.28779E-05   -0.19710E-04   936   0.645E-02    0.131E-02
DAV:  10    -0.871975042080E+03   -0.31956E-04   -0.12243E-04   808   0.243E-02    0.174E-02
DAV:  11    -0.871975045115E+03   -0.30350E-05   -0.64385E-06   816   0.502E-03    0.151E-02
DAV:  12    -0.871975051400E+03   -0.62846E-05   -0.18607E-06   552   0.562E-03    0.101E-02
DAV:  13    -0.871975066255E+03   -0.14855E-04   -0.14843E-05   800   0.733E-03    0.800E-03
DAV:  14    -0.871975066329E+03   -0.74317E-07   -0.28280E-06   648   0.383E-03
  12 F= -.87197507E+03 E0= -.87197507E+03  d E =-.946522E-01
 trial-energy change:   -0.094652  1 .order   -0.094955   -0.188252   -0.001658
 step:   0.6989(harm=  0.6989)  dis= 0.03865  next Energy=  -871.975377 (dE=-0.950E-01)
 bond charge predicted
       N       E                     dE             d eps       ncg     rms          rms(c)
DAV:   1    -0.871975071207E+03   -0.49519E-05   -0.37258E-03   736   0.116E-01    0.149E-02
DAV:   2    -0.871975078155E+03   -0.69480E-05   -0.77726E-05   808   0.152E-02    0.761E-03
DAV:   3    -0.871975077820E+03    0.33445E-06   -0.15512E-06   576   0.318E-03
  13 F= -.87197508E+03 E0= -.87197508E+03  d E =-.946637E-01
 curvature:  -0.79 expect dE=-0.225E+00 dE for cont linesearch -0.110E-06
 trial: gam= 1.04791 g(F)=  0.285E+00 g(S)=  0.000E+00 ort = 0.292E-03 (trialstep = 0.444E+00)
 search vector abs. value=  0.961E+00
 bond charge predicted
       N       E                     dE             d eps       ncg     rms          rms(c)
DAV:   1    -0.872026477861E+03   -0.51400E-01   -0.28608E+01   704   0.101E+01    0.136E+00
DAV:   2    -0.872070396654E+03   -0.43919E-01   -0.59723E-01   816   0.132E+00    0.663E-01
DAV:   3    -0.872064686575E+03    0.57101E-02   -0.15395E-02   824   0.270E-01    0.391E-01
DAV:   4    -0.872062808395E+03    0.18782E-02   -0.13732E-02   808   0.280E-01    0.126E-01
DAV:   5    -0.872062803734E+03    0.46607E-05   -0.27926E-03   816   0.114E-01    0.109E-01
DAV:   6    -0.872062731217E+03    0.72517E-04   -0.10607E-03   808   0.661E-02    0.523E-02
DAV:   7    -0.872062702079E+03    0.29138E-04   -0.87202E-05   816   0.287E-02    0.283E-02
DAV:   8    -0.872062684360E+03    0.17719E-04   -0.29206E-05   848   0.274E-02    0.981E-03
DAV:   9    -0.872062685822E+03   -0.14629E-05   -0.23375E-05   832   0.244E-02    0.704E-03
DAV:  10    -0.872062691585E+03   -0.57621E-05   -0.21940E-05   848   0.157E-02    0.626E-03
DAV:  11    -0.872062695356E+03   -0.37713E-05   -0.52935E-06   712   0.571E-03    0.638E-03
DAV:  12    -0.872062697398E+03   -0.20420E-05   -0.36702E-07   496   0.343E-03    0.459E-03
DAV:  13    -0.872062702509E+03   -0.51116E-05   -0.26364E-06   608   0.602E-03    0.238E-03
DAV:  14    -0.872062703230E+03   -0.72079E-06   -0.11625E-06   520   0.215E-03
  14 F= -.87206270E+03 E0= -.87206270E+03  d E =-.876254E-01
 trial-energy change:   -0.087625  1 .order   -0.087646   -0.126627   -0.048665
 step:   0.7219(harm=  0.7219)  dis= 0.05595  next Energy=  -872.077912 (dE=-0.103E+00)
 bond charge predicted
       N       E                     dE             d eps       ncg     rms          rms(c)
DAV:   1    -0.872063667726E+03   -0.96522E-03   -0.11148E+01   704   0.629E+00    0.850E-01
DAV:   2    -0.872080846302E+03   -0.17179E-01   -0.23212E-01   816   0.823E-01    0.412E-01
DAV:   3    -0.872078637117E+03    0.22092E-02   -0.59114E-03   824   0.168E-01    0.243E-01
DAV:   4    -0.872077911372E+03    0.72574E-03   -0.54480E-03   808   0.176E-01    0.789E-02
DAV:   5    -0.872077907775E+03    0.35977E-05   -0.11156E-03   824   0.714E-02    0.686E-02
DAV:   6    -0.872077878307E+03    0.29468E-04   -0.41928E-04   808   0.414E-02    0.328E-02
DAV:   7    -0.872077867615E+03    0.10692E-04   -0.35198E-05   816   0.182E-02    0.176E-02
DAV:   8    -0.872077861620E+03    0.59946E-05   -0.10899E-05   800   0.173E-02    0.617E-03
DAV:   9    -0.872077863548E+03   -0.19281E-05   -0.99511E-06   760   0.161E-02    0.461E-03
DAV:  10    -0.872077866855E+03   -0.33061E-05   -0.93853E-06   800   0.101E-02    0.406E-03
DAV:  11    -0.872077868688E+03   -0.18335E-05   -0.22648E-06   608   0.350E-03    0.419E-03
DAV:  12    -0.872077869499E+03   -0.81096E-06   -0.13027E-07   520   0.177E-03
  15 F= -.87207787E+03 E0= -.87207787E+03  d E =-.102792E+00
 curvature:  -1.22 expect dE=-0.265E+00 dE for cont linesearch -0.514E-08
 trial: gam= 0.76634 g(F)=  0.218E+00 g(S)=  0.000E+00 ort =-0.637E-04 (trialstep = 0.500E+00)
 search vector abs. value=  0.782E+00
 bond charge predicted
       N       E                     dE             d eps       ncg     rms          rms(c)
DAV:   1    -0.872104410188E+03   -0.26541E-01   -0.29943E+01   704   0.103E+01    0.141E+00
DAV:   2    -0.872151589409E+03   -0.47179E-01   -0.62431E-01   824   0.137E+00    0.670E-01
DAV:   3    -0.872145243237E+03    0.63462E-02   -0.14646E-02   824   0.296E-01    0.394E-01
DAV:   4    -0.872142719082E+03    0.25242E-02   -0.15500E-02   816   0.346E-01    0.129E-01
DAV:   5    -0.872142765242E+03   -0.46160E-04   -0.43782E-03   808   0.139E-01    0.123E-01
DAV:   6    -0.872142595177E+03    0.17006E-03   -0.95378E-04   808   0.614E-02    0.621E-02
DAV:   7    -0.872142479868E+03    0.11531E-03   -0.69447E-05   888   0.397E-02    0.301E-02
DAV:   8    -0.872142395455E+03    0.84413E-04   -0.72751E-05   952   0.547E-02    0.102E-02
DAV:   9    -0.872142385565E+03    0.98897E-05   -0.97086E-05  1000   0.520E-02    0.851E-03
DAV:  10    -0.872142397831E+03   -0.12266E-04   -0.73798E-05   800   0.213E-02    0.113E-02
DAV:  11    -0.872142398919E+03   -0.10881E-05   -0.77373E-06   784   0.479E-03    0.132E-02
DAV:  12    -0.872142399003E+03   -0.83986E-07   -0.13211E-07   512   0.712E-04
  16 F= -.87214240E+03 E0= -.87214240E+03  d E =-.645295E-01
 trial-energy change:   -0.064530  1 .order   -0.064654   -0.108979   -0.020329
 step:   0.6146(harm=  0.6146)  dis= 0.04980  next Energy=  -872.144855 (dE=-0.670E-01)
 bond charge predicted
       N       E                     dE             d eps       ncg     rms          rms(c)
DAV:   1    -0.872142711923E+03   -0.31300E-03   -0.15743E+00   704   0.238E+00    0.320E-01
DAV:   2    -0.872145202476E+03   -0.24906E-02   -0.32740E-02   824   0.313E-01    0.155E-01
DAV:   3    -0.872144856091E+03    0.34639E-03   -0.75503E-04   824   0.679E-02    0.913E-02
DAV:   4    -0.872144716659E+03    0.13943E-03   -0.86752E-04   840   0.835E-02    0.301E-02
DAV:   5    -0.872144719693E+03   -0.30346E-05   -0.24956E-04   808   0.327E-02    0.293E-02
DAV:   6    -0.872144709992E+03    0.97007E-05   -0.51835E-05   808   0.141E-02    0.144E-02
DAV:   7    -0.872144703708E+03    0.62840E-05   -0.53004E-06   720   0.102E-02    0.651E-03
DAV:   8    -0.872144700049E+03    0.36595E-05   -0.42767E-06   688   0.138E-02    0.277E-03
DAV:   9    -0.872144700293E+03   -0.24430E-06   -0.72383E-06   800   0.135E-02
  17 F= -.87214470E+03 E0= -.87214470E+03  d E =-.668308E-01
 curvature:  -1.10 expect dE=-0.173E+00 dE for cont linesearch -0.426E-06
 trial: gam= 0.72326 g(F)=  0.157E+00 g(S)=  0.000E+00 ort =-0.550E-03 (trialstep = 0.523E+00)
 search vector abs. value=  0.565E+00
 bond charge predicted
       N       E                     dE             d eps       ncg     rms          rms(c)
DAV:   1    -0.872162690546E+03   -0.17990E-01   -0.24337E+01   704   0.947E+00    0.119E+00
DAV:   2    -0.872203845167E+03   -0.41155E-01   -0.50955E-01   816   0.125E+00    0.585E-01
DAV:   3    -0.872199585802E+03    0.42594E-02   -0.10985E-02   808   0.243E-01    0.352E-01
DAV:   4    -0.872197573849E+03    0.20120E-02   -0.10361E-02   808   0.261E-01    0.103E-01
DAV:   5    -0.872197589557E+03   -0.15708E-04   -0.27724E-03   824   0.118E-01    0.101E-01
DAV:   6    -0.872197500470E+03    0.89086E-04   -0.67357E-04   808   0.568E-02    0.576E-02
DAV:   7    -0.872197433952E+03    0.66518E-04   -0.58676E-05   848   0.314E-02    0.289E-02
DAV:   8    -0.872197390951E+03    0.43001E-04   -0.56933E-05   992   0.403E-02    0.848E-03
DAV:   9    -0.872197395871E+03   -0.49202E-05   -0.52734E-05   896   0.323E-02    0.787E-03
DAV:  10    -0.872197406484E+03   -0.10613E-04   -0.33637E-05   808   0.150E-02    0.879E-03
DAV:  11    -0.872197408295E+03   -0.18106E-05   -0.23683E-06   592   0.299E-03    0.749E-03
DAV:  12    -0.872197411110E+03   -0.28151E-05   -0.17307E-06   560   0.369E-03    0.401E-03
DAV:  13    -0.872197415214E+03   -0.41044E-05   -0.24374E-06   600   0.463E-03    0.335E-03
DAV:  14    -0.872197415906E+03   -0.69171E-06   -0.19313E-06   576   0.363E-03
  18 F= -.87219742E+03 E0= -.87219742E+03  d E =-.527156E-01
 trial-energy change:   -0.052716  1 .order   -0.052683   -0.081832   -0.023534
 step:   0.7339(harm=  0.7339)  dis= 0.04101  next Energy=  -872.202134 (dE=-0.574E-01)
 bond charge predicted
       N       E                     dE             d eps       ncg     rms          rms(c)
DAV:   1    -0.872196502182E+03    0.91303E-03   -0.39697E+00   704   0.380E+00    0.480E-01
DAV:   2    -0.872203181180E+03   -0.66790E-02   -0.82754E-02   816   0.502E-01    0.237E-01
DAV:   3    -0.872202484333E+03    0.69685E-03   -0.17809E-03   808   0.978E-02    0.142E-01
DAV:   4    -0.872202162861E+03    0.32147E-03   -0.17438E-03   808   0.106E-01    0.421E-02
DAV:   5    -0.872202164585E+03   -0.17240E-05   -0.45747E-04   824   0.477E-02    0.414E-02
DAV:   6    -0.872202149719E+03    0.14866E-04   -0.11110E-04   808   0.229E-02    0.237E-02
DAV:   7    -0.872202138804E+03    0.10915E-04   -0.10389E-05   832   0.132E-02    0.117E-02
DAV:   8    -0.872202132148E+03    0.66555E-05   -0.10070E-05   864   0.168E-02    0.361E-03
DAV:   9    -0.872202133177E+03   -0.10284E-05   -0.93316E-06   832   0.137E-02    0.327E-03
DAV:  10    -0.872202134969E+03   -0.17923E-05   -0.61342E-06   784   0.625E-03    0.386E-03
DAV:  11    -0.872202135186E+03   -0.21714E-06   -0.36196E-07   528   0.120E-03
  19 F= -.87220214E+03 E0= -.87220214E+03  d E =-.574349E-01
 curvature:  -1.33 expect dE=-0.211E+00 dE for cont linesearch -0.136E-06
 trial: gam= 1.01436 g(F)=  0.159E+00 g(S)=  0.000E+00 ort =-0.241E-03 (trialstep = 0.432E+00)
 search vector abs. value=  0.740E+00
 bond charge predicted
       N       E                     dE             d eps       ncg     rms          rms(c)
DAV:   1    -0.872216115995E+03   -0.13981E-01   -0.22697E+01   704   0.909E+00    0.103E+00
DAV:   2    -0.872256694156E+03   -0.40578E-01   -0.47830E-01   792   0.119E+00    0.512E-01
DAV:   3    -0.872253139487E+03    0.35547E-02   -0.92487E-03   824   0.218E-01    0.316E-01
DAV:   4    -0.872251221160E+03    0.19183E-02   -0.82373E-03   824   0.242E-01    0.835E-02
DAV:   5    -0.872251337286E+03   -0.11613E-03   -0.25396E-03   816   0.105E-01    0.882E-02
DAV:   6    -0.872251285060E+03    0.52226E-04   -0.35888E-04   816   0.406E-02    0.574E-02
DAV:   7    -0.872251241972E+03    0.43088E-04   -0.54232E-05   808   0.228E-02    0.265E-02
DAV:   8    -0.872251223519E+03    0.18453E-04   -0.41545E-05   880   0.286E-02    0.802E-03
DAV:   9    -0.872251227478E+03   -0.39585E-05   -0.40406E-05   928   0.251E-02    0.843E-03
DAV:  10    -0.872251230146E+03   -0.26683E-05   -0.16493E-05   808   0.855E-03    0.856E-03
DAV:  11    -0.872251230815E+03   -0.66862E-06   -0.15564E-06   504   0.287E-03
  20 F= -.87225123E+03 E0= -.87225123E+03  d E =-.490956E-01
 trial-energy change:   -0.049096  1 .order   -0.049186   -0.068544   -0.029828
 step:   0.7640(harm=  0.7640)  dis= 0.04423  next Energy=  -872.262811 (dE=-0.607E-01)
 bond charge predicted
       N       E                     dE             d eps       ncg     rms          rms(c)
DAV:   1    -0.872241861458E+03    0.93687E-02   -0.13479E+01   704   0.701E+00    0.793E-01
DAV:   2    -0.872265838881E+03   -0.23977E-01   -0.28347E-01   792   0.917E-01    0.395E-01
DAV:   3    -0.872263723802E+03    0.21151E-02   -0.55000E-03   824   0.168E-01    0.244E-01
DAV:   4    -0.872262593821E+03    0.11300E-02   -0.50129E-03   824   0.188E-01    0.652E-02
DAV:   5    -0.872262661585E+03   -0.67764E-04   -0.15333E-03   816   0.818E-02    0.691E-02
DAV:   6    -0.872262629139E+03    0.32446E-04   -0.22034E-04   816   0.317E-02    0.449E-02
DAV:   7    -0.872262602655E+03    0.26485E-04   -0.36352E-05   808   0.186E-02    0.203E-02
DAV:   8    -0.872262592498E+03    0.10157E-04   -0.26782E-05   896   0.226E-02    0.645E-03
DAV:   9    -0.872262595502E+03   -0.30040E-05   -0.25094E-05   920   0.198E-02    0.676E-03
DAV:  10    -0.872262597214E+03   -0.17116E-05   -0.10092E-05   808   0.672E-03    0.665E-03
DAV:  11    -0.872262597805E+03   -0.59136E-06   -0.97527E-07   504   0.246E-03
  21 F= -.87226260E+03 E0= -.87226260E+03  d E =-.604626E-01
 curvature:  -1.78 expect dE=-0.276E+00 dE for cont linesearch -0.682E-06
 trial: gam= 0.97615 g(F)=  0.155E+00 g(S)=  0.000E+00 ort =-0.533E-03 (trialstep = 0.429E+00)
 search vector abs. value=  0.859E+00
 bond charge predicted
       N       E                     dE             d eps       ncg     rms          rms(c)
DAV:   1    -0.872264910771E+03   -0.23136E-02   -0.24527E+01   704   0.951E+00    0.106E+00
DAV:   2    -0.872310820768E+03   -0.45910E-01   -0.53002E-01   792   0.126E+00    0.528E-01
DAV:   3    -0.872307161927E+03    0.36588E-02   -0.93492E-03   824   0.222E-01    0.327E-01
DAV:   4    -0.872305199112E+03    0.19628E-02   -0.10438E-02   816   0.276E-01    0.957E-02
DAV:   5    -0.872305303947E+03   -0.10484E-03   -0.29534E-03   816   0.115E-01    0.987E-02
DAV:   6    -0.872305243674E+03    0.60273E-04   -0.42716E-04   808   0.435E-02    0.619E-02
DAV:   7    -0.872305197250E+03    0.46424E-04   -0.76897E-05   808   0.254E-02    0.282E-02
DAV:   8    -0.872305177398E+03    0.19852E-04   -0.52558E-05   880   0.296E-02    0.907E-03
DAV:   9    -0.872305177218E+03    0.17952E-06   -0.39347E-05   968   0.230E-02    0.879E-03
DAV:  10    -0.872305178217E+03   -0.99909E-06   -0.13650E-05   800   0.828E-03    0.790E-03
DAV:  11    -0.872305178495E+03   -0.27729E-06   -0.12828E-06   488   0.456E-03
  22 F= -.87230518E+03 E0= -.87230518E+03  d E =-.425807E-01
 trial-energy change:   -0.042581  1 .order   -0.042587   -0.066207   -0.018967
 step:   0.6014(harm=  0.6014)  dis= 0.04002  next Energy=  -872.308993 (dE=-0.464E-01)
 bond charge predicted
       N       E                     dE             d eps       ncg     rms          rms(c)
DAV:   1    -0.872302456115E+03    0.27221E-02   -0.39535E+00   704   0.382E+00    0.426E-01
DAV:   2    -0.872309778765E+03   -0.73226E-02   -0.85064E-02   800   0.506E-01    0.211E-01
DAV:   3    -0.872309199673E+03    0.57909E-03   -0.15109E-03   824   0.893E-02    0.131E-01
DAV:   4    -0.872308887008E+03    0.31267E-03   -0.17004E-03   816   0.111E-01    0.389E-02
DAV:   5    -0.872308904203E+03   -0.17195E-04   -0.48557E-04   816   0.465E-02    0.405E-02
DAV:   6    -0.872308893853E+03    0.10351E-04   -0.68724E-05   808   0.175E-02    0.258E-02
DAV:   7    -0.872308885564E+03    0.82882E-05   -0.14381E-05   800   0.110E-02    0.115E-02
DAV:   8    -0.872308882436E+03    0.31284E-05   -0.98158E-06   840   0.126E-02    0.400E-03
DAV:   9    -0.872308882653E+03   -0.21712E-06   -0.73269E-06   800   0.977E-03
  23 F= -.87230888E+03 E0= -.87230888E+03  d E =-.462848E-01
 curvature:  -1.67 expect dE=-0.155E+00 dE for cont linesearch -0.957E-06
 trial: gam= 0.58671 g(F)=  0.924E-01 g(S)=  0.000E+00 ort =-0.701E-03 (trialstep = 0.464E+00)
 search vector abs. value=  0.387E+00
 bond charge predicted
       N       E                     dE             d eps       ncg     rms          rms(c)
DAV:   1    -0.872317209977E+03   -0.83275E-02   -0.12952E+01   704   0.695E+00    0.831E-01
DAV:   2    -0.872340047495E+03   -0.22838E-01   -0.27279E-01   824   0.926E-01    0.384E-01
DAV:   3    -0.872337995804E+03    0.20517E-02   -0.54173E-03   816   0.171E-01    0.233E-01
DAV:   4    -0.872336951219E+03    0.10446E-02   -0.52952E-03   808   0.196E-01    0.703E-02
DAV:   5    -0.872336989996E+03   -0.38777E-04   -0.14943E-03   816   0.856E-02    0.743E-02
DAV:   6    -0.872336952739E+03    0.37257E-04   -0.26421E-04   816   0.354E-02    0.476E-02
DAV:   7    -0.872336917733E+03    0.35006E-04   -0.28164E-05   816   0.219E-02    0.233E-02
DAV:   8    -0.872336896766E+03    0.20967E-04   -0.33016E-05   936   0.296E-02    0.670E-03
DAV:   9    -0.872336898886E+03   -0.21200E-05   -0.34789E-05   952   0.259E-02    0.687E-03
DAV:  10    -0.872336902577E+03   -0.36915E-05   -0.18021E-05   800   0.854E-03    0.885E-03
DAV:  11    -0.872336902829E+03   -0.25218E-06   -0.61888E-07   520   0.162E-03
  24 F= -.87233690E+03 E0= -.87233690E+03  d E =-.280202E-01
 trial-energy change:   -0.028020  1 .order   -0.028078   -0.042629   -0.013527
 step:   0.6791(harm=  0.6791)  dis= 0.02981  next Energy=  -872.340104 (dE=-0.312E-01)
 bond charge predicted
       N       E                     dE             d eps       ncg     rms          rms(c)
DAV:   1    -0.872335749450E+03    0.11531E-02   -0.27974E+00   704   0.323E+00    0.386E-01
DAV:   2    -0.872340644395E+03   -0.48949E-02   -0.58778E-02   824   0.431E-01    0.178E-01
DAV:   3    -0.872340208132E+03    0.43626E-03   -0.11816E-03   816   0.798E-02    0.108E-01
DAV:   4    -0.872339978195E+03    0.22994E-03   -0.11387E-03   816   0.912E-02    0.330E-02
DAV:   5    -0.872339986242E+03   -0.80477E-05   -0.32779E-04   816   0.404E-02    0.348E-02
DAV:   6    -0.872339978151E+03    0.80910E-05   -0.59006E-05   808   0.169E-02    0.224E-02
DAV:   7    -0.872339970448E+03    0.77038E-05   -0.65783E-06   800   0.110E-02    0.107E-02
DAV:   8    -0.872339966523E+03    0.39247E-05   -0.77940E-06   800   0.147E-02    0.338E-03
DAV:   9    -0.872339967912E+03   -0.13895E-05   -0.92329E-06   872   0.136E-02    0.351E-03
DAV:  10    -0.872339968978E+03   -0.10659E-05   -0.48347E-06   760   0.440E-03    0.454E-03
DAV:  11    -0.872339969076E+03   -0.97818E-07   -0.22580E-07   520   0.952E-04
  25 F= -.87233997E+03 E0= -.87233997E+03  d E =-.310864E-01
 curvature:  -1.43 expect dE=-0.123E+00 dE for cont linesearch -0.903E-06
 trial: gam= 0.93005 g(F)=  0.862E-01 g(S)=  0.000E+00 ort =-0.495E-03 (trialstep = 0.467E+00)
 search vector abs. value=  0.420E+00
 bond charge predicted
       N       E                     dE             d eps       ncg     rms          rms(c)
DAV:   1    -0.872344672432E+03   -0.47035E-02   -0.15837E+01   704   0.773E+00    0.791E-01
DAV:   2    -0.872371850063E+03   -0.27178E-01   -0.32094E-01   824   0.101E+00    0.412E-01
DAV:   3    -0.872369776567E+03    0.20735E-02   -0.59677E-03   816   0.173E-01    0.254E-01
DAV:   4    -0.872368562352E+03    0.12142E-02   -0.60929E-03   808   0.213E-01    0.760E-02
DAV:   5    -0.872368615806E+03   -0.53454E-04   -0.17230E-03   816   0.889E-02    0.776E-02
DAV:   6    -0.872368570522E+03    0.45283E-04   -0.28481E-04   816   0.355E-02    0.476E-02
DAV:   7    -0.872368537431E+03    0.33092E-04   -0.59172E-05   808   0.222E-02    0.192E-02
DAV:   8    -0.872368529028E+03    0.84029E-05   -0.39113E-05   896   0.245E-02    0.852E-03
DAV:   9    -0.872368536217E+03   -0.71898E-05   -0.28812E-05   960   0.203E-02    0.777E-03
DAV:  10    -0.872368540317E+03   -0.41000E-05   -0.10218E-05   808   0.717E-03    0.575E-03
DAV:  11    -0.872368543580E+03   -0.32629E-05   -0.10567E-06   504   0.537E-03    0.348E-03
DAV:  12    -0.872368549105E+03   -0.55248E-05   -0.51140E-06   672   0.101E-02    0.312E-03
DAV:  13    -0.872368549878E+03   -0.77269E-06   -0.32018E-06   688   0.387E-03
  26 F= -.87236855E+03 E0= -.87236855E+03  d E =-.285808E-01
 trial-energy change:   -0.028581  1 .order   -0.028584   -0.040017   -0.017152
 step:   0.8173(harm=  0.8173)  dis= 0.03307  next Energy=  -872.374986 (dE=-0.350E-01)
 bond charge predicted
       N       E                     dE             d eps       ncg     rms          rms(c)
DAV:   1    -0.872361418519E+03    0.71306E-02   -0.89107E+00   704   0.582E+00    0.595E-01
DAV:   2    -0.872376682209E+03   -0.15264E-01   -0.18030E-01   824   0.755E-01    0.309E-01
DAV:   3    -0.872375514133E+03    0.11681E-02   -0.33593E-03   816   0.130E-01    0.190E-01
DAV:   4    -0.872374832499E+03    0.68163E-03   -0.33893E-03   808   0.159E-01    0.565E-02
DAV:   5    -0.872374863659E+03   -0.31160E-04   -0.96650E-04   816   0.665E-02    0.579E-02
DAV:   6    -0.872374838813E+03    0.24845E-04   -0.15760E-04   816   0.264E-02    0.356E-02
DAV:   7    -0.872374820904E+03    0.17909E-04   -0.32351E-05   816   0.164E-02    0.144E-02
DAV:   8    -0.872374816772E+03    0.41321E-05   -0.20982E-05   880   0.183E-02    0.629E-03
DAV:   9    -0.872374821128E+03   -0.43562E-05   -0.16375E-05   944   0.158E-02    0.575E-03
DAV:  10    -0.872374823671E+03   -0.25426E-05   -0.63070E-06   792   0.562E-03    0.438E-03
DAV:  11    -0.872374825341E+03   -0.16709E-05   -0.59519E-07   504   0.371E-03    0.274E-03
DAV:  12    -0.872374828421E+03   -0.30796E-05   -0.25215E-06   616   0.734E-03    0.216E-03
DAV:  13    -0.872374828842E+03   -0.42105E-06   -0.16393E-06   544   0.284E-03
  27 F= -.87237483E+03 E0= -.87237483E+03  d E =-.348598E-01
 curvature:  -2.00 expect dE=-0.216E+00 dE for cont linesearch -0.294E-05
 trial: gam= 1.24907 g(F)=  0.108E+00 g(S)=  0.000E+00 ort =-0.785E-03 (trialstep = 0.296E+00)
 search vector abs. value=  0.761E+00
 bond charge predicted
       N       E                     dE             d eps       ncg     rms          rms(c)
DAV:   1    -0.872380100530E+03   -0.52721E-02   -0.13148E+01   704   0.704E+00    0.692E-01
DAV:   2    -0.872402999443E+03   -0.22899E-01   -0.26559E-01   776   0.904E-01    0.362E-01
DAV:   3    -0.872401478527E+03    0.15209E-02   -0.48107E-03   824   0.146E-01    0.227E-01
DAV:   4    -0.872400605824E+03    0.87270E-03   -0.49312E-03   808   0.185E-01    0.675E-02
DAV:   5    -0.872400662784E+03   -0.56960E-04   -0.12990E-03   824   0.737E-02    0.682E-02
DAV:   6    -0.872400630472E+03    0.32311E-04   -0.22564E-04   816   0.319E-02    0.394E-02
DAV:   7    -0.872400614617E+03    0.15856E-04   -0.56756E-05   800   0.192E-02    0.144E-02
DAV:   8    -0.872400613810E+03    0.80631E-06   -0.25724E-05   816   0.156E-02    0.704E-03
DAV:   9    -0.872400615023E+03   -0.12126E-05   -0.10666E-05   792   0.950E-03    0.608E-03
DAV:  10    -0.872400615253E+03   -0.22993E-06   -0.21361E-06   584   0.326E-03
  28 F= -.87240062E+03 E0= -.87240062E+03  d E =-.257864E-01
 trial-energy change:   -0.025786  1 .order   -0.025813   -0.031592   -0.020035
 step:   0.8104(harm=  0.8104)  dis= 0.04172  next Energy=  -872.418007 (dE=-0.432E-01)
 bond charge predicted
       N       E                     dE             d eps       ncg     rms          rms(c)
DAV:   1    -0.872355405556E+03    0.45209E-01   -0.39491E+01   704   0.122E+01    0.120E+00
DAV:   2    -0.872424798844E+03   -0.69393E-01   -0.80519E-01   776   0.157E+00    0.630E-01
DAV:   3    -0.872420200251E+03    0.45986E-02   -0.14752E-02   824   0.255E-01    0.395E-01
DAV:   4    -0.872417523567E+03    0.26767E-02   -0.14801E-02   808   0.320E-01    0.119E-01
DAV:   5    -0.872417688283E+03   -0.16472E-03   -0.39141E-03   824   0.128E-01    0.118E-01
DAV:   6    -0.872417591644E+03    0.96639E-04   -0.69592E-04   816   0.561E-02    0.680E-02
DAV:   7    -0.872417545964E+03    0.45679E-04   -0.16750E-04   792   0.330E-02    0.250E-02
DAV:   8    -0.872417544454E+03    0.15100E-05   -0.72308E-05   824   0.273E-02    0.117E-02
DAV:   9    -0.872417549240E+03   -0.47861E-05   -0.32787E-05   848   0.172E-02    0.103E-02
DAV:  10    -0.872417550619E+03   -0.13790E-05   -0.70517E-06   808   0.572E-03    0.697E-03
DAV:  11    -0.872417553845E+03   -0.32254E-05   -0.22049E-06   528   0.561E-03    0.336E-03
DAV:  12    -0.872417560416E+03   -0.65714E-05   -0.73897E-06   720   0.111E-02    0.518E-03
DAV:  13    -0.872417562212E+03   -0.17959E-05   -0.64811E-06   720   0.762E-03    0.197E-03
DAV:  14    -0.872417562552E+03   -0.33974E-06   -0.98873E-07   528   0.201E-03
  29 F= -.87241756E+03 E0= -.87241756E+03  d E =-.427337E-01
 curvature:  -2.89 expect dE=-0.309E+00 dE for cont linesearch -0.126E-04
 trial: gam= 0.97148 g(F)=  0.107E+00 g(S)=  0.000E+00 ort =-0.182E-02 (trialstep = 0.370E+00)
 search vector abs. value=  0.822E+00
 bond charge predicted
       N       E                     dE             d eps       ncg     rms          rms(c)
DAV:   1    -0.872409613282E+03    0.79489E-02   -0.22478E+01   704   0.918E+00    0.900E-01
DAV:   2    -0.872449300977E+03   -0.39688E-01   -0.46116E-01   776   0.119E+00    0.475E-01
DAV:   3    -0.872446733601E+03    0.25674E-02   -0.88204E-03   824   0.198E-01    0.299E-01
DAV:   4    -0.872445207565E+03    0.15260E-02   -0.86825E-03   808   0.245E-01    0.958E-02
DAV:   5    -0.872445272068E+03   -0.64503E-04   -0.21726E-03   808   0.987E-02    0.925E-02
DAV:   6    -0.872445203848E+03    0.68219E-04   -0.50832E-04   816   0.485E-02    0.501E-02
DAV:   7    -0.872445175337E+03    0.28512E-04   -0.93522E-05   816   0.254E-02    0.192E-02
DAV:   8    -0.872445169852E+03    0.54846E-05   -0.40802E-05   864   0.229E-02    0.977E-03
DAV:   9    -0.872445171280E+03   -0.14276E-05   -0.24208E-05   864   0.159E-02    0.808E-03
DAV:  10    -0.872445171925E+03   -0.64490E-06   -0.55936E-06   712   0.478E-03
  30 F= -.87244517E+03 E0= -.87244517E+03  d E =-.276094E-01
 trial-energy change:   -0.027609  1 .order   -0.027576   -0.038870   -0.016283
 step:   0.6365(harm=  0.6365)  dis= 0.03588  next Energy=  -872.451008 (dE=-0.334E-01)
 bond charge predicted
       N       E                     dE             d eps       ncg     rms          rms(c)
DAV:   1    -0.872432581285E+03    0.12590E-01   -0.11681E+01   712   0.662E+00    0.650E-01
DAV:   2    -0.872453001906E+03   -0.20421E-01   -0.23802E-01   776   0.855E-01    0.342E-01
DAV:   3    -0.872451657669E+03    0.13442E-02   -0.46150E-03   824   0.144E-01    0.215E-01
DAV:   4    -0.872450849134E+03    0.80854E-03   -0.44798E-03   808   0.177E-01    0.690E-02
DAV:   5    -0.872450883730E+03   -0.34596E-04   -0.11416E-03   808   0.719E-02    0.669E-02
DAV:   6    -0.872450848138E+03    0.35592E-04   -0.26236E-04   816   0.349E-02    0.368E-02
DAV:   7    -0.872450833597E+03    0.14541E-04   -0.48701E-05   808   0.189E-02    0.139E-02
DAV:   8    -0.872450832042E+03    0.15557E-05   -0.22932E-05   864   0.179E-02    0.739E-03
DAV:   9    -0.872450834292E+03   -0.22503E-05   -0.14903E-05   944   0.130E-02    0.603E-03
DAV:  10    -0.872450835173E+03   -0.88139E-06   -0.36705E-06   656   0.389E-03
  31 F= -.87245084E+03 E0= -.87245084E+03  d E =-.332726E-01
 curvature:  -2.49 expect dE=-0.209E+00 dE for cont linesearch -0.241E-05
 trial: gam= 0.75722 g(F)=  0.840E-01 g(S)=  0.000E+00 ort =-0.892E-03 (trialstep = 0.423E+00)
 search vector abs. value=  0.554E+00
 bond charge predicted
       N       E                     dE             d eps       ncg     rms          rms(c)
DAV:   1    -0.872442853803E+03    0.79805E-02   -0.20114E+01   704   0.868E+00    0.880E-01
DAV:   2    -0.872478190159E+03   -0.35336E-01   -0.41107E-01   800   0.112E+00    0.439E-01
DAV:   3    -0.872475814261E+03    0.23759E-02   -0.76559E-03   816   0.190E-01    0.271E-01
DAV:   4    -0.872474477319E+03    0.13369E-02   -0.72284E-03   808   0.224E-01    0.845E-02
DAV:   5    -0.872474543821E+03   -0.66502E-04   -0.18168E-03   808   0.909E-02    0.840E-02
DAV:   6    -0.872474498252E+03    0.45568E-04   -0.37963E-04   808   0.419E-02    0.484E-02
DAV:   7    -0.872474477467E+03    0.20785E-04   -0.61461E-05   808   0.216E-02    0.211E-02
DAV:   8    -0.872474472596E+03    0.48708E-05   -0.35131E-05   888   0.218E-02    0.790E-03
DAV:   9    -0.872474474190E+03   -0.15931E-05   -0.20404E-05   832   0.139E-02    0.721E-03
DAV:  10    -0.872474474560E+03   -0.37072E-06   -0.41395E-06   672   0.416E-03
  32 F= -.87247447E+03 E0= -.87247447E+03  d E =-.236394E-01
 trial-energy change:   -0.023639  1 .order   -0.023669   -0.035281   -0.012057
 step:   0.6429(harm=  0.6429)  dis= 0.03186  next Energy=  -872.477634 (dE=-0.268E-01)
 bond charge predicted
       N       E                     dE             d eps       ncg     rms          rms(c)
DAV:   1    -0.872469105560E+03    0.53686E-02   -0.54224E+00   704   0.450E+00    0.456E-01
DAV:   2    -0.872478548410E+03   -0.94429E-02   -0.11023E-01   784   0.582E-01    0.227E-01
DAV:   3    -0.872477919207E+03    0.62920E-03   -0.21484E-03   824   0.992E-02    0.141E-01
DAV:   4    -0.872477544406E+03    0.37480E-03   -0.19543E-03   816   0.118E-01    0.442E-02
DAV:   5    -0.872477561754E+03   -0.17348E-04   -0.50951E-04   808   0.484E-02    0.444E-02
DAV:   6    -0.872477548254E+03    0.13500E-04   -0.10330E-04   816   0.219E-02    0.260E-02
DAV:   7    -0.872477541551E+03    0.67035E-05   -0.17774E-05   816   0.122E-02    0.111E-02
DAV:   8    -0.872477540066E+03    0.14847E-05   -0.11050E-05   848   0.131E-02    0.463E-03
DAV:   9    -0.872477541015E+03   -0.94882E-06   -0.77013E-06   808   0.929E-03
  33 F= -.87247754E+03 E0= -.87247754E+03  d E =-.267058E-01
 curvature:  -2.14 expect dE=-0.124E+00 dE for cont linesearch -0.471E-07
 trial: gam= 0.68177 g(F)=  0.580E-01 g(S)=  0.000E+00 ort =-0.111E-03 (trialstep = 0.467E+00)
 search vector abs. value=  0.315E+00
 bond charge predicted
       N       E                     dE             d eps       ncg     rms          rms(c)
DAV:   1    -0.872472075217E+03    0.54648E-02   -0.14720E+01   704   0.732E+00    0.721E-01
DAV:   2    -0.872497828604E+03   -0.25753E-01   -0.29668E-01   800   0.945E-01    0.360E-01
DAV:   3    -0.872496055002E+03    0.17736E-02   -0.55754E-03   816   0.157E-01    0.224E-01
DAV:   4    -0.872494879686E+03    0.11753E-02   -0.49080E-03   808   0.181E-01    0.663E-02
DAV:   5    -0.872494932746E+03   -0.53060E-04   -0.13450E-03   808   0.776E-02    0.668E-02
DAV:   6    -0.872494903376E+03    0.29370E-04   -0.23539E-04   816   0.333E-02    0.416E-02
DAV:   7    -0.872494885701E+03    0.17675E-04   -0.36526E-05   792   0.181E-02    0.173E-02
DAV:   8    -0.872494881760E+03    0.39406E-05   -0.28996E-05   904   0.201E-02    0.692E-03
DAV:   9    -0.872494885653E+03   -0.38926E-05   -0.20862E-05   808   0.132E-02    0.748E-03
DAV:  10    -0.872494886172E+03   -0.51915E-06   -0.35530E-06   632   0.393E-03
  34 F= -.87249489E+03 E0= -.87249489E+03  d E =-.173452E-01
 trial-energy change:   -0.017345  1 .order   -0.017401   -0.027036   -0.007766
 step:   0.6601(harm=  0.6553)  dis= 0.02875  next Energy=  -872.496486 (dE=-0.189E-01)
 bond charge predicted
       N       E                     dE             d eps       ncg     rms          rms(c)
DAV:   1    -0.872492577265E+03    0.23084E-02   -0.25130E+00   704   0.302E+00    0.297E-01
DAV:   2    -0.872496935760E+03   -0.43585E-02   -0.50412E-02   800   0.390E-01    0.149E-01
DAV:   3    -0.872496629221E+03    0.30654E-03   -0.95775E-04   824   0.652E-02    0.926E-02
DAV:   4    -0.872496422405E+03    0.20682E-03   -0.82893E-04   816   0.751E-02    0.275E-02
DAV:   5    -0.872496431848E+03   -0.94430E-05   -0.23669E-04   800   0.327E-02    0.280E-02
DAV:   6    -0.872496426872E+03    0.49762E-05   -0.40049E-05   816   0.138E-02    0.178E-02
DAV:   7    -0.872496423939E+03    0.29335E-05   -0.67802E-06   768   0.822E-03    0.726E-03
DAV:   8    -0.872496423838E+03    0.10079E-06   -0.57216E-06   728   0.943E-03
  35 F= -.87249642E+03 E0= -.87249642E+03  d E =-.188828E-01
 curvature:  -1.78 expect dE=-0.883E-01 dE for cont linesearch -0.145E-05
 trial: gam= 0.85897 g(F)=  0.495E-01 g(S)=  0.000E+00 ort =-0.506E-03 (trialstep = 0.506E+00)
 search vector abs. value=  0.281E+00
 bond charge predicted
       N       E                     dE             d eps       ncg     rms          rms(c)
DAV:   1    -0.872488301678E+03    0.81223E-02   -0.15944E+01   704   0.752E+00    0.689E-01
DAV:   2    -0.872516205064E+03   -0.27903E-01   -0.31518E-01   792   0.956E-01    0.358E-01
DAV:   3    -0.872514432971E+03    0.17721E-02   -0.54465E-03   816   0.150E-01    0.227E-01
DAV:   4    -0.872513203618E+03    0.12294E-02   -0.55615E-03   808   0.187E-01    0.679E-02
DAV:   5    -0.872513257638E+03   -0.54020E-04   -0.13789E-03   800   0.767E-02    0.670E-02
DAV:   6    -0.872513225961E+03    0.31677E-04   -0.27516E-04   808   0.360E-02    0.369E-02
DAV:   7    -0.872513213393E+03    0.12568E-04   -0.44766E-05   784   0.182E-02    0.157E-02
DAV:   8    -0.872513212062E+03    0.13310E-05   -0.24248E-05   840   0.184E-02    0.730E-03
DAV:   9    -0.872513216249E+03   -0.41875E-05   -0.15881E-05   856   0.119E-02    0.690E-03
DAV:  10    -0.872513217136E+03   -0.88612E-06   -0.28679E-06   608   0.334E-03
  36 F= -.87251322E+03 E0= -.87251322E+03  d E =-.167933E-01
 trial-energy change:   -0.016793  1 .order   -0.016844   -0.024803   -0.008885
 step:   0.7968(harm=  0.7880)  dis= 0.03603  next Energy=  -872.515765 (dE=-0.193E-01)
 bond charge predicted
       N       E                     dE             d eps       ncg     rms          rms(c)
DAV:   1    -0.872507483986E+03    0.57323E-02   -0.52837E+00   704   0.433E+00    0.396E-01
DAV:   2    -0.872516636556E+03   -0.91526E-02   -0.10384E-01   792   0.550E-01    0.206E-01
DAV:   3    -0.872516050532E+03    0.58602E-03   -0.17992E-03   824   0.865E-02    0.130E-01
DAV:   4    -0.872515633414E+03    0.41712E-03   -0.18444E-03   816   0.108E-01    0.391E-02
DAV:   5    -0.872515652655E+03   -0.19241E-04   -0.46993E-04   800   0.449E-02    0.391E-02
DAV:   6    -0.872515642132E+03    0.10523E-04   -0.88835E-05   808   0.205E-02    0.221E-02
DAV:   7    -0.872515638410E+03    0.37224E-05   -0.16254E-05   784   0.116E-02    0.901E-03
DAV:   8    -0.872515639458E+03   -0.10484E-05   -0.97163E-06   792   0.121E-02    0.483E-03
DAV:   9    -0.872515642272E+03   -0.28140E-05   -0.71649E-06   792   0.838E-03    0.455E-03
DAV:  10    -0.872515642785E+03   -0.51341E-06   -0.13871E-06   568   0.237E-03
  37 F= -.87251564E+03 E0= -.87251564E+03  d E =-.192189E-01
 curvature:  -2.26 expect dE=-0.972E-01 dE for cont linesearch -0.244E-05
 trial: gam= 0.86814 g(F)=  0.431E-01 g(S)=  0.000E+00 ort =-0.551E-03 (trialstep = 0.564E+00)
 search vector abs. value=  0.254E+00
 bond charge predicted
       N       E                     dE             d eps       ncg     rms          rms(c)
DAV:   1    -0.872499486782E+03    0.16155E-01   -0.18178E+01   704   0.805E+00    0.781E-01
DAV:   2    -0.872532073571E+03   -0.32587E-01   -0.36832E-01   792   0.104E+00    0.380E-01
DAV:   3    -0.872529887749E+03    0.21858E-02   -0.64561E-03   824   0.174E-01    0.239E-01
DAV:   4    -0.872528449177E+03    0.14386E-02   -0.68970E-03   808   0.224E-01    0.752E-02
DAV:   5    -0.872528531304E+03   -0.82127E-04   -0.19168E-03   808   0.905E-02    0.813E-02
DAV:   6    -0.872528490946E+03    0.40358E-04   -0.24860E-04   808   0.327E-02    0.527E-02
DAV:   7    -0.872528457506E+03    0.33440E-04   -0.82117E-05   808   0.240E-02    0.214E-02
DAV:   8    -0.872528448566E+03    0.89401E-05   -0.38851E-05   848   0.229E-02    0.810E-03
DAV:   9    -0.872528448278E+03    0.28830E-06   -0.24001E-05   896   0.163E-02    0.834E-03
DAV:  10    -0.872528448128E+03    0.14946E-06   -0.74983E-06   808   0.641E-03
  38 F= -.87252845E+03 E0= -.87252845E+03  d E =-.128053E-01
 trial-energy change:   -0.012805  1 .order   -0.012826   -0.024017   -0.001635
 step:   0.6051(harm=  0.6051)  dis= 0.02667  next Energy=  -872.528528 (dE=-0.129E-01)
 bond charge predicted
       N       E                     dE             d eps       ncg     rms          rms(c)
DAV:   1    -0.872528361341E+03    0.86936E-04   -0.97103E-02   704   0.587E-01    0.561E-02
DAV:   2    -0.872528531503E+03   -0.17016E-03   -0.19468E-03   792   0.757E-02    0.279E-02
DAV:   3    -0.872528519113E+03    0.12390E-04   -0.35372E-05   832   0.131E-02    0.177E-02
DAV:   4    -0.872528510214E+03    0.88988E-05   -0.35943E-05   784   0.173E-02    0.553E-03
DAV:   5    -0.872528510934E+03   -0.72031E-06   -0.12604E-05   808   0.762E-03    0.632E-03
DAV:   6    -0.872528510744E+03    0.19032E-06   -0.12990E-06   512   0.263E-03
  39 F= -.87252851E+03 E0= -.87252851E+03  d E =-.128680E-01
 curvature:  -1.80 expect dE=-0.519E-01 dE for cont linesearch -0.400E-08
 trial: gam= 0.64492 g(F)=  0.287E-01 g(S)=  0.000E+00 ort =-0.237E-04 (trialstep = 0.572E+00)
 search vector abs. value=  0.134E+00
 bond charge predicted
       N       E                     dE             d eps       ncg     rms          rms(c)
DAV:   1    -0.872522005521E+03    0.65054E-02   -0.99454E+00   712   0.597E+00    0.616E-01
DAV:   2    -0.872539546922E+03   -0.17541E-01   -0.20013E-01   792   0.773E-01    0.285E-01
DAV:   3    -0.872538266956E+03    0.12800E-02   -0.36922E-03   816   0.133E-01    0.177E-01
DAV:   4    -0.872537469031E+03    0.79792E-03   -0.39705E-03   808   0.165E-01    0.584E-02
DAV:   5    -0.872537499153E+03   -0.30122E-04   -0.98519E-04   800   0.667E-02    0.614E-02
DAV:   6    -0.872537475239E+03    0.23914E-04   -0.15621E-04   808   0.263E-02    0.387E-02
DAV:   7    -0.872537458082E+03    0.17157E-04   -0.44517E-05   792   0.196E-02    0.156E-02
DAV:   8    -0.872537454611E+03    0.34708E-05   -0.26220E-05   872   0.179E-02    0.661E-03
DAV:   9    -0.872537456160E+03   -0.15487E-05   -0.13370E-05   784   0.104E-02    0.676E-03
DAV:  10    -0.872537456464E+03   -0.30411E-06   -0.22605E-06   568   0.385E-03
  40 F= -.87253746E+03 E0= -.87253746E+03  d E =-.894572E-02
 trial-energy change:   -0.008946  1 .order   -0.008954   -0.016436   -0.001472
 step:   0.6284(harm=  0.6284)  dis= 0.02003  next Energy=  -872.537537 (dE=-0.903E-02)
 bond charge predicted
       N       E                     dE             d eps       ncg     rms          rms(c)
DAV:   1    -0.872537377472E+03    0.78688E-04   -0.96266E-02   712   0.587E-01    0.600E-02
DAV:   2    -0.872537543584E+03   -0.16611E-03   -0.19238E-03   792   0.763E-02    0.281E-02
DAV:   3    -0.872537530799E+03    0.12785E-04   -0.38186E-05   824   0.135E-02    0.175E-02
DAV:   4    -0.872537522267E+03    0.85316E-05   -0.34953E-05   800   0.159E-02    0.559E-03
DAV:   5    -0.872537522640E+03   -0.37251E-06   -0.98202E-06   800   0.691E-03
  41 F= -.87253752E+03 E0= -.87253752E+03  d E =-.901190E-02
 curvature:  -1.47 expect dE=-0.305E-01 dE for cont linesearch -0.182E-06
 trial: gam= 0.73792 g(F)=  0.208E-01 g(S)=  0.000E+00 ort =-0.129E-03 (trialstep = 0.583E+00)
 search vector abs. value=  0.937E-01
 bond charge predicted
       N       E                     dE             d eps       ncg     rms          rms(c)
DAV:   1    -0.872533025906E+03    0.44964E-02   -0.73956E+00   712   0.517E+00    0.512E-01
DAV:   2    -0.872545939243E+03   -0.12913E-01   -0.14732E-01   808   0.665E-01    0.243E-01
DAV:   3    -0.872545091347E+03    0.84790E-03   -0.27548E-03   824   0.109E-01    0.152E-01
DAV:   4    -0.872544534321E+03    0.55703E-03   -0.25208E-03   800   0.132E-01    0.471E-02
DAV:   5    -0.872544560919E+03   -0.26598E-04   -0.64631E-04   800   0.539E-02    0.473E-02
DAV:   6    -0.872544545240E+03    0.15679E-04   -0.12158E-04   816   0.241E-02    0.273E-02
DAV:   7    -0.872544538086E+03    0.71540E-05   -0.22454E-05   792   0.140E-02    0.113E-02
DAV:   8    -0.872544536676E+03    0.14097E-05   -0.13754E-05   864   0.145E-02    0.531E-03
DAV:   9    -0.872544538123E+03   -0.14465E-05   -0.95816E-06   776   0.912E-03    0.527E-03
DAV:  10    -0.872544538360E+03   -0.23656E-06   -0.16676E-06   576   0.266E-03
  42 F= -.87254454E+03 E0= -.87254454E+03  d E =-.701572E-02
 trial-energy change:   -0.007016  1 .order   -0.007043   -0.012060   -0.002027
 step:   0.7037(harm=  0.7013)  dis= 0.01812  next Energy=  -872.544747 (dE=-0.722E-02)
 bond charge predicted
       N       E                     dE             d eps       ncg     rms          rms(c)
DAV:   1    -0.872544254600E+03    0.28352E-03   -0.31431E-01   712   0.106E+00    0.105E-01
DAV:   2    -0.872544796515E+03   -0.54192E-03   -0.62149E-03   808   0.137E-01    0.501E-02
DAV:   3    -0.872544759228E+03    0.37286E-04   -0.11730E-04   824   0.226E-02    0.313E-02
DAV:   4    -0.872544733682E+03    0.25547E-04   -0.10333E-04   800   0.273E-02    0.952E-03
DAV:   5    -0.872544735093E+03   -0.14111E-05   -0.29351E-05   800   0.117E-02    0.977E-03
DAV:   6    -0.872544734525E+03    0.56816E-06   -0.49975E-06   752   0.495E-03
  43 F= -.87254473E+03 E0= -.87254473E+03  d E =-.721189E-02
 curvature:  -1.59 expect dE=-0.271E-01 dE for cont linesearch -0.134E-05
 trial: gam= 0.81549 g(F)=  0.171E-01 g(S)=  0.000E+00 ort =-0.282E-03 (trialstep = 0.607E+00)
 search vector abs. value=  0.789E-01
 bond charge predicted
       N       E                     dE             d eps       ncg     rms          rms(c)
DAV:   1    -0.872539780360E+03    0.49547E-02   -0.67657E+00   704   0.498E+00    0.469E-01
DAV:   2    -0.872551776070E+03   -0.11996E-01   -0.13742E-01   800   0.646E-01    0.236E-01
DAV:   3    -0.872551029652E+03    0.74642E-03   -0.26347E-03   816   0.108E-01    0.148E-01
DAV:   4    -0.872550492072E+03    0.53758E-03   -0.23795E-03   808   0.130E-01    0.493E-02
DAV:   5    -0.872550506798E+03   -0.14727E-04   -0.63139E-04   816   0.546E-02    0.483E-02
DAV:   6    -0.872550487631E+03    0.19167E-04   -0.13332E-04   808   0.255E-02    0.276E-02
DAV:   7    -0.872550477998E+03    0.96332E-05   -0.24851E-05   816   0.147E-02    0.106E-02
DAV:   8    -0.872550475256E+03    0.27416E-05   -0.14087E-05   904   0.150E-02    0.557E-03
DAV:   9    -0.872550476240E+03   -0.98368E-06   -0.10416E-05   776   0.103E-02    0.525E-03
DAV:  10    -0.872550476471E+03   -0.23116E-06   -0.20479E-06   576   0.317E-03
  44 F= -.87255048E+03 E0= -.87255048E+03  d E =-.574195E-02
 trial-energy change:   -0.005742  1 .order   -0.005731   -0.010218   -0.001244
 step:   0.6916(harm=  0.6916)  dis= 0.01578  next Energy=  -872.550552 (dE=-0.582E-02)
 bond charge predicted
       N       E                     dE             d eps       ncg     rms          rms(c)
DAV:   1    -0.872550353481E+03    0.12276E-03   -0.12989E-01   704   0.691E-01    0.640E-02
DAV:   2    -0.872550579824E+03   -0.22634E-03   -0.26170E-03   800   0.895E-02    0.327E-02
DAV:   3    -0.872550564830E+03    0.14995E-04   -0.51785E-05   816   0.154E-02    0.206E-02
DAV:   4    -0.872550553355E+03    0.11475E-04   -0.43117E-05   808   0.181E-02    0.675E-03
DAV:   5    -0.872550553728E+03   -0.37345E-06   -0.13286E-05   800   0.820E-03    0.677E-03
DAV:   6    -0.872550553384E+03    0.34472E-06   -0.23599E-06   552   0.365E-03
  45 F= -.87255055E+03 E0= -.87255055E+03  d E =-.581886E-02
 curvature:  -1.62 expect dE=-0.242E-01 dE for cont linesearch -0.629E-06
 trial: gam= 0.86394 g(F)=  0.149E-01 g(S)=  0.000E+00 ort =-0.175E-03 (trialstep = 0.624E+00)
 search vector abs. value=  0.735E-01
 bond charge predicted
       N       E                     dE             d eps       ncg     rms          rms(c)
DAV:   1    -0.872545126172E+03    0.54276E-02   -0.65862E+00   712   0.496E+00    0.482E-01
DAV:   2    -0.872556906312E+03   -0.11780E-01   -0.13522E-01   800   0.648E-01    0.233E-01
DAV:   3    -0.872556192359E+03    0.71395E-03   -0.26062E-03   816   0.110E-01    0.147E-01
DAV:   4    -0.872555725190E+03    0.46717E-03   -0.25211E-03   808   0.134E-01    0.512E-02
DAV:   5    -0.872555739054E+03   -0.13864E-04   -0.61202E-04   816   0.539E-02    0.511E-02
DAV:   6    -0.872555718913E+03    0.20141E-04   -0.13836E-04   808   0.260E-02    0.289E-02
DAV:   7    -0.872555709504E+03    0.94092E-05   -0.32079E-05   808   0.157E-02    0.116E-02
DAV:   8    -0.872555707274E+03    0.22297E-05   -0.15332E-05   848   0.145E-02    0.567E-03
DAV:   9    -0.872555707924E+03   -0.65000E-06   -0.89348E-06   792   0.886E-03
  46 F= -.87255571E+03 E0= -.87255571E+03  d E =-.515454E-02
 trial-energy change:   -0.005155  1 .order   -0.005176   -0.009210   -0.001142
 step:   0.7144(harm=  0.7127)  dis= 0.01496  next Energy=  -872.555790 (dE=-0.524E-02)
 bond charge predicted
       N       E                     dE             d eps       ncg     rms          rms(c)
DAV:   1    -0.872555556299E+03    0.15097E-03   -0.13700E-01   712   0.717E-01    0.686E-02
DAV:   2    -0.872555798908E+03   -0.24261E-03   -0.27909E-03   800   0.932E-02    0.335E-02
DAV:   3    -0.872555782800E+03    0.16109E-04   -0.52561E-05   824   0.162E-02    0.212E-02
DAV:   4    -0.872555771580E+03    0.11219E-04   -0.52337E-05   808   0.205E-02    0.727E-03
DAV:   5    -0.872555772176E+03   -0.59525E-06   -0.15573E-05   800   0.876E-03    0.769E-03
DAV:   6    -0.872555771793E+03    0.38306E-06   -0.24445E-06   560   0.363E-03
  47 F= -.87255577E+03 E0= -.87255577E+03  d E =-.521841E-02
 curvature:  -1.78 expect dE=-0.225E-01 dE for cont linesearch -0.257E-05
 trial: gam= 0.85804 g(F)=  0.127E-01 g(S)=  0.000E+00 ort =-0.327E-03 (trialstep = 0.642E+00)
 search vector abs. value=  0.663E-01
 bond charge predicted
       N       E                     dE             d eps       ncg     rms          rms(c)
DAV:   1    -0.872549501157E+03    0.62710E-02   -0.62485E+00   712   0.488E+00    0.485E-01
DAV:   2    -0.872560810503E+03   -0.11309E-01   -0.12922E-01   800   0.639E-01    0.228E-01
DAV:   3    -0.872560082184E+03    0.72832E-03   -0.24147E-03   832   0.109E-01    0.143E-01
DAV:   4    -0.872559623068E+03    0.45912E-03   -0.24827E-03   808   0.138E-01    0.487E-02
DAV:   5    -0.872559646554E+03   -0.23486E-04   -0.65229E-04   816   0.545E-02    0.512E-02
DAV:   6    -0.872559628787E+03    0.17767E-04   -0.10723E-04   808   0.222E-02    0.315E-02
DAV:   7    -0.872559616899E+03    0.11888E-04   -0.35452E-05   808   0.161E-02    0.122E-02
DAV:   8    -0.872559614254E+03    0.26450E-05   -0.16420E-05   816   0.144E-02    0.548E-03
DAV:   9    -0.872559614158E+03    0.95621E-07   -0.97666E-06   792   0.947E-03
  48 F= -.87255961E+03 E0= -.87255961E+03  d E =-.384237E-02
 trial-energy change:   -0.003842  1 .order   -0.003880   -0.007977    0.000217
 step:   0.6249(harm=  0.6253)  dis= 0.01121  next Energy=  -872.559617 (dE=-0.385E-02)
 bond charge predicted
       N       E                     dE             d eps       ncg     rms          rms(c)
DAV:   1    -0.872559612686E+03    0.15677E-05   -0.46485E-03   728   0.133E-01    0.143E-02
DAV:   2    -0.872559621414E+03   -0.87279E-05   -0.99842E-05   800   0.179E-02    0.670E-03
DAV:   3    -0.872559621134E+03    0.28016E-06   -0.20005E-06   560   0.339E-03
  49 F= -.87255962E+03 E0= -.87255962E+03  d E =-.384934E-02
 curvature:  -1.67 expect dE=-0.158E-01 dE for cont linesearch -0.176E-05
 trial: gam= 0.72707 g(F)=  0.947E-02 g(S)=  0.000E+00 ort =-0.264E-03 (trialstep = 0.639E+00)
 search vector abs. value=  0.441E-01
 bond charge predicted
       N       E                     dE             d eps       ncg     rms          rms(c)
DAV:   1    -0.872556198821E+03    0.34226E-02   -0.40574E+00   704   0.397E+00    0.395E-01
DAV:   2    -0.872563723885E+03   -0.75251E-02   -0.85100E-02   800   0.523E-01    0.184E-01
DAV:   3    -0.872563257265E+03    0.46662E-03   -0.15030E-03   832   0.867E-02    0.115E-01
DAV:   4    -0.872562971239E+03    0.28603E-03   -0.17269E-03   800   0.111E-01    0.404E-02
DAV:   5    -0.872562983425E+03   -0.12186E-04   -0.41752E-04   808   0.439E-02    0.416E-02
DAV:   6    -0.872562971794E+03    0.11631E-04   -0.76176E-05   808   0.188E-02    0.243E-02
DAV:   7    -0.872562965549E+03    0.62450E-05   -0.24630E-05   800   0.138E-02    0.960E-03
DAV:   8    -0.872562965293E+03    0.25603E-06   -0.11503E-05   816   0.108E-02    0.480E-03
DAV:   9    -0.872562965885E+03   -0.59226E-06   -0.47979E-06   776   0.578E-03
  50 F= -.87256297E+03 E0= -.87256297E+03  d E =-.334475E-02
 trial-energy change:   -0.003345  1 .order   -0.003390   -0.005928   -0.000851
 step:   0.7530(harm=  0.7459)  dis= 0.00900  next Energy=  -872.563042 (dE=-0.342E-02)
 bond charge predicted
       N       E                     dE             d eps       ncg     rms          rms(c)
DAV:   1    -0.872562802290E+03    0.16300E-03   -0.12940E-01   704   0.709E-01    0.697E-02
DAV:   2    -0.872563040401E+03   -0.23811E-03   -0.26964E-03   800   0.931E-02    0.326E-02
DAV:   3    -0.872563025035E+03    0.15365E-04   -0.47253E-05   832   0.155E-02    0.204E-02
DAV:   4    -0.872563015181E+03    0.98544E-05   -0.53371E-05   800   0.201E-02    0.703E-03
DAV:   5    -0.872563015788E+03   -0.60748E-06   -0.14491E-05   800   0.822E-03    0.745E-03
DAV:   6    -0.872563015471E+03    0.31729E-06   -0.19561E-06   512   0.321E-03
  51 F= -.87256302E+03 E0= -.87256302E+03  d E =-.339434E-02
 curvature:  -1.77 expect dE=-0.157E-01 dE for cont linesearch -0.474E-05
 trial: gam= 0.95436 g(F)=  0.890E-02 g(S)=  0.000E+00 ort =-0.344E-03 (trialstep = 0.603E+00)
 search vector abs. value=  0.484E-01
 bond charge predicted
       N       E                     dE             d eps       ncg     rms          rms(c)
DAV:   1    -0.872559664683E+03    0.33511E-02   -0.38633E+00   704   0.388E+00    0.344E-01
DAV:   2    -0.872566911207E+03   -0.72465E-02   -0.80764E-02   792   0.509E-01    0.177E-01
DAV:   3    -0.872566517756E+03    0.39345E-03   -0.13474E-03   824   0.819E-02    0.114E-01
DAV:   4    -0.872566250600E+03    0.26716E-03   -0.17211E-03   808   0.115E-01    0.424E-02
DAV:   5    -0.872566261830E+03   -0.11230E-04   -0.45188E-04   800   0.453E-02    0.430E-02
DAV:   6    -0.872566247760E+03    0.14070E-04   -0.76858E-05   808   0.187E-02    0.252E-02
DAV:   7    -0.872566237665E+03    0.10095E-04   -0.34700E-05   816   0.162E-02    0.857E-03
DAV:   8    -0.872566236216E+03    0.14492E-05   -0.13927E-05   816   0.128E-02    0.547E-03
DAV:   9    -0.872566236058E+03    0.15835E-06   -0.67165E-06   800   0.773E-03
  52 F= -.87256624E+03 E0= -.87256624E+03  d E =-.322059E-02
 trial-energy change:   -0.003221  1 .order   -0.003260   -0.005169   -0.001351
 step:   0.8358(harm=  0.8159)  dis= 0.00813  next Energy=  -872.566495 (dE=-0.348E-02)
 bond charge predicted
       N       E                     dE             d eps       ncg     rms          rms(c)
DAV:   1    -0.872565411979E+03    0.82424E-03   -0.57690E-01   704   0.150E+00    0.132E-01
DAV:   2    -0.872566485917E+03   -0.10739E-02   -0.11993E-02   800   0.196E-01    0.682E-02
DAV:   3    -0.872566426958E+03    0.58959E-04   -0.20000E-04   824   0.317E-02    0.437E-02
DAV:   4    -0.872566383613E+03    0.43345E-04   -0.24658E-04   824   0.448E-02    0.159E-02
DAV:   5    -0.872566385670E+03   -0.20567E-05   -0.71212E-05   808   0.180E-02    0.165E-02
DAV:   6    -0.872566383565E+03    0.21043E-05   -0.10468E-05   808   0.691E-03    0.101E-02
DAV:   7    -0.872566381748E+03    0.18178E-05   -0.52578E-06   712   0.679E-03    0.343E-03
DAV:   8    -0.872566381448E+03    0.29938E-06   -0.23135E-06   552   0.607E-03
  53 F= -.87256638E+03 E0= -.87256638E+03  d E =-.336598E-02
 curvature:  -2.28 expect dE=-0.236E-01 dE for cont linesearch -0.207E-04
 trial: gam= 1.19096 g(F)=  0.103E-01 g(S)=  0.000E+00 ort =-0.662E-03 (trialstep = 0.406E+00)
 search vector abs. value=  0.774E-01
 bond charge predicted
       N       E                     dE             d eps       ncg     rms          rms(c)
DAV:   1    -0.872564070443E+03    0.23113E-02   -0.28731E+00   704   0.336E+00    0.295E-01
DAV:   2    -0.872569415902E+03   -0.53455E-02   -0.59641E-02   808   0.439E-01    0.150E-01
DAV:   3    -0.872569130812E+03    0.28509E-03   -0.99660E-04   824   0.693E-02    0.964E-02
DAV:   4    -0.872568941061E+03    0.18975E-03   -0.12502E-03   808   0.966E-02    0.354E-02
DAV:   5    -0.872568951105E+03   -0.10044E-04   -0.31429E-04   800   0.373E-02    0.366E-02
DAV:   6    -0.872568941959E+03    0.91458E-05   -0.52550E-05   808   0.154E-02    0.219E-02
DAV:   7    -0.872568936162E+03    0.57969E-05   -0.25755E-05   792   0.132E-02    0.735E-03
DAV:   8    -0.872568936306E+03   -0.14390E-06   -0.90334E-06   800   0.851E-03
  54 F= -.87256894E+03 E0= -.87256894E+03  d E =-.255486E-02
 trial-energy change:   -0.002555  1 .order   -0.002532   -0.003869   -0.001195
 step:   0.5756(harm=  0.5877)  dis= 0.00686  next Energy=  -872.569187 (dE=-0.281E-02)
 bond charge predicted
       N       E                     dE             d eps       ncg     rms          rms(c)
DAV:   1    -0.872568382034E+03    0.55413E-03   -0.50050E-01   704   0.140E+00    0.123E-01
DAV:   2    -0.872569314643E+03   -0.93261E-03   -0.10395E-02   808   0.183E-01    0.627E-02
DAV:   3    -0.872569263832E+03    0.50810E-04   -0.17055E-04   824   0.289E-02    0.403E-02
DAV:   4    -0.872569229096E+03    0.34736E-04   -0.22230E-04   816   0.411E-02    0.149E-02
DAV:   5    -0.872569230905E+03   -0.18085E-05   -0.58250E-05   792   0.161E-02    0.155E-02
DAV:   6    -0.872569229318E+03    0.15871E-05   -0.85933E-06   816   0.618E-03    0.966E-03
DAV:   7    -0.872569228121E+03    0.11969E-05   -0.49093E-06   712   0.610E-03    0.316E-03
DAV:   8    -0.872569228151E+03   -0.29984E-07   -0.18961E-06   528   0.443E-03
  55 F= -.87256923E+03 E0= -.87256923E+03  d E =-.284670E-02
 curvature:  -2.38 expect dE=-0.149E-01 dE for cont linesearch -0.486E-05
 trial: gam= 0.45444 g(F)=  0.627E-02 g(S)=  0.000E+00 ort = 0.398E-03 (trialstep = 0.440E+00)
 search vector abs. value=  0.226E-01
 bond charge predicted
       N       E                     dE             d eps       ncg     rms          rms(c)
DAV:   1    -0.872569550966E+03   -0.32285E-03   -0.96905E-01   704   0.196E+00    0.200E-01
DAV:   2    -0.872571380936E+03   -0.18300E-02   -0.20852E-02   808   0.263E-01    0.946E-02
DAV:   3    -0.872571250512E+03    0.13042E-03   -0.37689E-04   832   0.455E-02    0.592E-02
DAV:   4    -0.872571173931E+03    0.76581E-04   -0.48356E-04   808   0.599E-02    0.223E-02
DAV:   5    -0.872571175648E+03   -0.17171E-05   -0.12052E-04   808   0.241E-02    0.227E-02
DAV:   6    -0.872571172027E+03    0.36211E-05   -0.20348E-05   808   0.961E-03    0.140E-02
DAV:   7    -0.872571169219E+03    0.28075E-05   -0.77944E-06   784   0.826E-03    0.536E-03
DAV:   8    -0.872571168660E+03    0.55887E-06   -0.36267E-06   648   0.710E-03
  56 F= -.87257117E+03 E0= -.87257117E+03  d E =-.194051E-02
 trial-energy change:   -0.001941  1 .order   -0.001938   -0.002841   -0.001034
 step:   0.6921(harm=  0.6921)  dis= 0.00423  next Energy=  -872.571462 (dE=-0.223E-02)
 bond charge predicted
       N       E                     dE             d eps       ncg     rms          rms(c)
DAV:   1    -0.872570938398E+03    0.23082E-03   -0.31804E-01   704   0.112E+00    0.114E-01
DAV:   2    -0.872571538123E+03   -0.59973E-03   -0.68428E-03   808   0.151E-01    0.541E-02
DAV:   3    -0.872571493932E+03    0.44191E-04   -0.12267E-04   832   0.261E-02    0.338E-02
DAV:   4    -0.872571466703E+03    0.27229E-04   -0.15796E-04   816   0.348E-02    0.128E-02
DAV:   5    -0.872571467349E+03   -0.64576E-06   -0.42240E-05   808   0.143E-02    0.132E-02
DAV:   6    -0.872571466102E+03    0.12468E-05   -0.65549E-06   808   0.547E-03    0.838E-03
DAV:   7    -0.872571464936E+03    0.11667E-05   -0.25103E-06   584   0.536E-03    0.321E-03
DAV:   8    -0.872571464739E+03    0.19691E-06   -0.20832E-06   528   0.531E-03
  57 F= -.87257146E+03 E0= -.87257146E+03  d E =-.223659E-02
 curvature:  -1.21 expect dE=-0.698E-02 dE for cont linesearch -0.761E-07
 trial: gam= 0.98884 g(F)=  0.576E-02 g(S)=  0.000E+00 ort =-0.377E-04 (trialstep = 0.399E+00)
 search vector abs. value=  0.278E-01
 bond charge predicted
       N       E                     dE             d eps       ncg     rms          rms(c)
DAV:   1    -0.872571416818E+03    0.48118E-04   -0.10264E+00   704   0.202E+00    0.199E-01
DAV:   2    -0.872573322609E+03   -0.19058E-02   -0.21568E-02   800   0.266E-01    0.919E-02
DAV:   3    -0.872573198036E+03    0.12457E-03   -0.36541E-04   832   0.438E-02    0.577E-02
DAV:   4    -0.872573124764E+03    0.73272E-04   -0.46220E-04   808   0.594E-02    0.209E-02
DAV:   5    -0.872573128819E+03   -0.40547E-05   -0.12058E-04   800   0.232E-02    0.226E-02
DAV:   6    -0.872573125531E+03    0.32877E-05   -0.16779E-05   808   0.860E-03    0.145E-02
DAV:   7    -0.872573122684E+03    0.28471E-05   -0.10245E-05   776   0.892E-03    0.500E-03
DAV:   8    -0.872573122527E+03    0.15679E-06   -0.44443E-06   760   0.637E-03
  58 F= -.87257312E+03 E0= -.87257312E+03  d E =-.165779E-02
 trial-energy change:   -0.001658  1 .order   -0.001641   -0.002283   -0.001000
 step:   0.6740(harm=  0.7101)  dis= 0.00413  next Energy=  -872.573472 (dE=-0.201E-02)
 bond charge predicted
       N       E                     dE             d eps       ncg     rms          rms(c)
DAV:   1    -0.872572714613E+03    0.40807E-03   -0.48718E-01   704   0.139E+00    0.137E-01
DAV:   2    -0.872573618841E+03   -0.90423E-03   -0.10242E-02   800   0.184E-01    0.632E-02
DAV:   3    -0.872573558424E+03    0.60417E-04   -0.17211E-04   832   0.302E-02    0.397E-02
DAV:   4    -0.872573521781E+03    0.36643E-04   -0.22076E-04   816   0.415E-02    0.146E-02
DAV:   5    -0.872573523780E+03   -0.19991E-05   -0.60300E-05   808   0.164E-02    0.158E-02
DAV:   6    -0.872573522183E+03    0.15970E-05   -0.77851E-06   816   0.586E-03    0.104E-02
DAV:   7    -0.872573520631E+03    0.15524E-05   -0.53938E-06   696   0.674E-03    0.356E-03
DAV:   8    -0.872573520546E+03    0.85143E-07   -0.23616E-06   560   0.513E-03
  59 F= -.87257352E+03 E0= -.87257352E+03  d E =-.205581E-02
 curvature:  -1.70 expect dE=-0.849E-02 dE for cont linesearch -0.928E-05
 trial: gam= 0.75897 g(F)=  0.498E-02 g(S)=  0.000E+00 ort = 0.389E-03 (trialstep = 0.454E+00)
 search vector abs. value=  0.216E-01
 bond charge predicted
       N       E                     dE             d eps       ncg     rms          rms(c)
DAV:   1    -0.872573518281E+03    0.23493E-05   -0.10182E+00   704   0.201E+00    0.187E-01
DAV:   2    -0.872575440706E+03   -0.19224E-02   -0.21692E-02   800   0.267E-01    0.940E-02
DAV:   3    -0.872575323865E+03    0.11684E-03   -0.37322E-04   832   0.443E-02    0.597E-02
DAV:   4    -0.872575251701E+03    0.72164E-04   -0.49092E-04   808   0.605E-02    0.231E-02
DAV:   5    -0.872575253566E+03   -0.18646E-05   -0.12143E-04   816   0.238E-02    0.230E-02
DAV:   6    -0.872575249388E+03    0.41774E-05   -0.23216E-05   808   0.103E-02    0.132E-02
DAV:   7    -0.872575246920E+03    0.24681E-05   -0.90966E-06   808   0.824E-03    0.467E-03
DAV:   8    -0.872575246644E+03    0.27649E-06   -0.34804E-06   688   0.649E-03
  60 F= -.87257525E+03 E0= -.87257525E+03  d E =-.172610E-02
 trial-energy change:   -0.001726  1 .order   -0.001722   -0.002397   -0.001046
 step:   0.7942(harm=  0.8057)  dis= 0.00409  next Energy=  -872.575640 (dE=-0.212E-02)
 reached required accuracy - stopping structural energy minimisation
Running "mpirun -np 48 vasp"
