 112 112   0   0
  0.2170079E+02  0.1372957E-08  0.1373220E-08  0.1489038E-08  0.5000000E-15
  1.000000000000000E-004
  CAR 
 unknown system                          
      8.25191973    -23.89883840  301     -1.92580464      1.00000000
    -23.899  0.0000E+00  0.0000E+00
    -23.792  0.0000E+00  0.0000E+00
    -23.685  0.0000E+00  0.0000E+00
    -23.577  0.0000E+00  0.0000E+00
    -23.470  0.0000E+00  0.0000E+00
    -23.363  0.0000E+00  0.0000E+00
    -23.256  0.0000E+00  0.0000E+00
    -23.149  0.0000E+00  0.0000E+00
    -23.041  0.0000E+00  0.0000E+00
    -22.934  0.3942E-13  0.4224E-14
    -22.827  0.6648E-09  0.7125E-10
    -22.720  0.1203E-05  0.1290E-06
    -22.613  0.2439E-03  0.2627E-04
    -22.506  0.6003E-02  0.6696E-03
    -22.398  0.2022E-01  0.2837E-02
    -22.291  0.1013E-01  0.3923E-02
    -22.184  0.1186E-02  0.4050E-02
    -22.077  0.8332E-02  0.4943E-02
    -21.970  0.2191E-01  0.7291E-02
    -21.863  0.3197E-01  0.1072E-01
    -21.755  0.7999E-01  0.1929E-01
    -21.648  0.7340E-01  0.2716E-01
    -21.541  0.6336E-01  0.3395E-01
    -21.434  0.7818E-01  0.4233E-01
    -21.327  0.1047E+00  0.5355E-01
    -21.220  0.9946E-01  0.6420E-01
    -21.112  0.7269E-01  0.7199E-01
    -21.005  0.8037E-01  0.8061E-01
    -20.898  0.1153E+00  0.9296E-01
    -20.791  0.1068E+00  0.1044E+00
    -20.684  0.7174E-01  0.1121E+00
    -20.577  0.5072E-01  0.1175E+00
    -20.469  0.6391E-01  0.1244E+00
    -20.362  0.8879E-01  0.1339E+00
    -20.255  0.1020E+00  0.1448E+00
    -20.148  0.1515E+00  0.1611E+00
    -20.041  0.3073E+00  0.1940E+00
    -19.934  0.3860E+00  0.2354E+00
    -19.826  0.2637E+00  0.2636E+00
    -19.719  0.1012E+00  0.2745E+00
    -19.612  0.1378E-01  0.2760E+00
    -19.505  0.5390E-03  0.2760E+00
    -19.398  0.4848E-02  0.2765E+00
    -19.291  0.1958E-01  0.2786E+00
    -19.183  0.1241E-01  0.2800E+00
    -19.076  0.1387E-01  0.2815E+00
    -18.969  0.3883E-01  0.2856E+00
    -18.862  0.2047E-01  0.2878E+00
    -18.755  0.1788E-02  0.2880E+00
    -18.648  0.2222E-04  0.2880E+00
    -18.540  0.3396E-07  0.2880E+00
    -18.433  0.5830E-11  0.2880E+00
    -18.326  0.1077E-15  0.2880E+00
    -18.219  0.0000E+00  0.2880E+00
    -18.112  0.0000E+00  0.2880E+00
    -18.005  0.0000E+00  0.2880E+00
    -17.897  0.0000E+00  0.2880E+00
    -17.790  0.0000E+00  0.2880E+00
    -17.683  0.0000E+00  0.2880E+00
    -17.576  0.0000E+00  0.2880E+00
    -17.469  0.0000E+00  0.2880E+00
    -17.362  0.0000E+00  0.2880E+00
    -17.254  0.0000E+00  0.2880E+00
    -17.147  0.0000E+00  0.2880E+00
    -17.040  0.0000E+00  0.2880E+00
    -16.933  0.0000E+00  0.2880E+00
    -16.826  0.0000E+00  0.2880E+00
    -16.719  0.0000E+00  0.2880E+00
    -16.611  0.0000E+00  0.2880E+00
    -16.504  0.0000E+00  0.2880E+00
    -16.397  0.0000E+00  0.2880E+00
    -16.290  0.0000E+00  0.2880E+00
    -16.183  0.0000E+00  0.2880E+00
    -16.075  0.0000E+00  0.2880E+00
    -15.968  0.0000E+00  0.2880E+00
    -15.861  0.0000E+00  0.2880E+00
    -15.754  0.0000E+00  0.2880E+00
    -15.647  0.0000E+00  0.2880E+00
    -15.540  0.0000E+00  0.2880E+00
    -15.432  0.0000E+00  0.2880E+00
    -15.325  0.0000E+00  0.2880E+00
    -15.218  0.0000E+00  0.2880E+00
    -15.111  0.0000E+00  0.2880E+00
    -15.004  0.0000E+00  0.2880E+00
    -14.897  0.0000E+00  0.2880E+00
    -14.789  0.0000E+00  0.2880E+00
    -14.682  0.0000E+00  0.2880E+00
    -14.575  0.0000E+00  0.2880E+00
    -14.468  0.0000E+00  0.2880E+00
    -14.361  0.0000E+00  0.2880E+00
    -14.254  0.0000E+00  0.2880E+00
    -14.146  0.0000E+00  0.2880E+00
    -14.039  0.0000E+00  0.2880E+00
    -13.932  0.2217E-15  0.2880E+00
    -13.825  0.1040E-10  0.2880E+00
    -13.718  0.5188E-07  0.2880E+00
    -13.611  0.2832E-04  0.2880E+00
    -13.503  0.1798E-02  0.2882E+00
    -13.396  0.1476E-01  0.2898E+00
    -13.289  0.1758E-01  0.2917E+00
    -13.182  0.3079E-02  0.2920E+00
    -13.075  0.7134E-04  0.2920E+00
    -12.968  0.1954E-06  0.2920E+00
    -12.860  0.5907E-10  0.2920E+00
    -12.753  0.3632E-14  0.2920E+00
    -12.646  0.5473E-10  0.2920E+00
    -12.539  0.1844E-06  0.2920E+00
    -12.432  0.6855E-04  0.2920E+00
    -12.325  0.3010E-02  0.2923E+00
    -12.217  0.1747E-01  0.2942E+00
    -12.110  0.1490E-01  0.2958E+00
    -12.003  0.1845E-02  0.2960E+00
    -11.896  0.1342E-03  0.2960E+00
    -11.789  0.3867E-02  0.2964E+00
    -11.682  0.2119E-01  0.2987E+00
    -11.574  0.3138E-01  0.3021E+00
    -11.467  0.3691E-01  0.3060E+00
    -11.360  0.5365E-01  0.3118E+00
    -11.253  0.5044E-01  0.3172E+00
    -11.146  0.2572E-01  0.3199E+00
    -11.039  0.2283E-01  0.3224E+00
    -10.931  0.3850E-01  0.3265E+00
    -10.824  0.1441E-01  0.3280E+00
    -10.717  0.2116E-01  0.3303E+00
    -10.610  0.7444E-01  0.3383E+00
    -10.503  0.9110E-01  0.3481E+00
    -10.396  0.7061E-01  0.3556E+00
    -10.288  0.3698E-01  0.3596E+00
    -10.181  0.2232E-01  0.3620E+00
    -10.074  0.1805E-01  0.3639E+00
     -9.967  0.2048E-01  0.3661E+00
     -9.860  0.5060E-01  0.3715E+00
     -9.753  0.5392E-01  0.3773E+00
     -9.645  0.5683E-01  0.3834E+00
     -9.538  0.5800E-01  0.3896E+00
     -9.431  0.4967E-01  0.3949E+00
     -9.324  0.2844E-01  0.3980E+00
     -9.217  0.2170E-01  0.4003E+00
     -9.109  0.2328E-01  0.4028E+00
     -9.002  0.2415E-01  0.4054E+00
     -8.895  0.2013E-01  0.4075E+00
     -8.788  0.1011E-01  0.4086E+00
     -8.681  0.4396E-01  0.4133E+00
     -8.574  0.8841E-01  0.4228E+00
     -8.466  0.7956E-01  0.4313E+00
     -8.359  0.8886E-01  0.4409E+00
     -8.252  0.1104E+00  0.4527E+00
     -8.145  0.1386E+00  0.4676E+00
     -8.038  0.1622E+00  0.4849E+00
     -7.931  0.1338E+00  0.4993E+00
     -7.823  0.1723E+00  0.5177E+00
     -7.716  0.1605E+00  0.5349E+00
     -7.609  0.8904E-01  0.5445E+00
     -7.502  0.6276E-01  0.5512E+00
     -7.395  0.7546E-01  0.5593E+00
     -7.288  0.6707E-01  0.5665E+00
     -7.180  0.6340E-01  0.5733E+00
     -7.073  0.4941E-01  0.5786E+00
     -6.966  0.1286E-01  0.5799E+00
     -6.859  0.1186E-02  0.5801E+00
     -6.752  0.9193E-02  0.5810E+00
     -6.645  0.2047E-01  0.5832E+00
     -6.537  0.7966E-02  0.5841E+00
     -6.430  0.1546E-01  0.5858E+00
     -6.323  0.4257E-01  0.5903E+00
     -6.216  0.4558E-01  0.5952E+00
     -6.109  0.5689E-01  0.6013E+00
     -6.002  0.1151E+00  0.6136E+00
     -5.894  0.1479E+00  0.6295E+00
     -5.787  0.1744E+00  0.6482E+00
     -5.680  0.1458E+00  0.6638E+00
     -5.573  0.1015E+00  0.6747E+00
     -5.466  0.8196E-01  0.6835E+00
     -5.359  0.7775E-01  0.6918E+00
     -5.251  0.7732E-01  0.7001E+00
     -5.144  0.7946E-01  0.7086E+00
     -5.037  0.1044E+00  0.7198E+00
     -4.930  0.1515E+00  0.7360E+00
     -4.823  0.1498E+00  0.7521E+00
     -4.716  0.1367E+00  0.7667E+00
     -4.608  0.1701E+00  0.7849E+00
     -4.501  0.2604E+00  0.8129E+00
     -4.394  0.3129E+00  0.8464E+00
     -4.287  0.3007E+00  0.8786E+00
     -4.180  0.2732E+00  0.9079E+00
     -4.073  0.2470E+00  0.9344E+00
     -3.965  0.2480E+00  0.9609E+00
     -3.858  0.2394E+00  0.9866E+00
     -3.751  0.2359E+00  0.1012E+01
     -3.644  0.1910E+00  0.1032E+01
     -3.537  0.1162E+00  0.1045E+01
     -3.430  0.7347E-01  0.1053E+01
     -3.322  0.9536E-01  0.1063E+01
     -3.215  0.1019E+00  0.1074E+01
     -3.108  0.1103E+00  0.1086E+01
     -3.001  0.1386E+00  0.1100E+01
     -2.894  0.2029E+00  0.1122E+01
     -2.787  0.1703E+00  0.1140E+01
     -2.679  0.1168E+00  0.1153E+01
     -2.572  0.5384E-01  0.1159E+01
     -2.465  0.3190E-01  0.1162E+01
     -2.358  0.1540E-01  0.1164E+01
     -2.251  0.1653E-02  0.1164E+01
     -2.143  0.2430E-04  0.1164E+01
     -2.036  0.4172E-07  0.1164E+01
     -1.929  0.7835E-11  0.1164E+01
     -1.822  0.1575E-15  0.1164E+01
     -1.715  0.0000E+00  0.1164E+01
     -1.608  0.0000E+00  0.1164E+01
     -1.500  0.0000E+00  0.1164E+01
     -1.393  0.0000E+00  0.1164E+01
     -1.286  0.0000E+00  0.1164E+01
     -1.179  0.0000E+00  0.1164E+01
     -1.072  0.0000E+00  0.1164E+01
     -0.965  0.0000E+00  0.1164E+01
     -0.857  0.0000E+00  0.1164E+01
     -0.750  0.0000E+00  0.1164E+01
     -0.643  0.0000E+00  0.1164E+01
     -0.536  0.0000E+00  0.1164E+01
     -0.429  0.0000E+00  0.1164E+01
     -0.322  0.0000E+00  0.1164E+01
     -0.214  0.0000E+00  0.1164E+01
     -0.107  0.0000E+00  0.1164E+01
     -0.000  0.0000E+00  0.1164E+01
      0.107  0.0000E+00  0.1164E+01
      0.214  0.0000E+00  0.1164E+01
      0.321  0.0000E+00  0.1164E+01
      0.429  0.0000E+00  0.1164E+01
      0.536  0.0000E+00  0.1164E+01
      0.643  0.0000E+00  0.1164E+01
      0.750  0.0000E+00  0.1164E+01
      0.857  0.0000E+00  0.1164E+01
      0.964  0.0000E+00  0.1164E+01
      1.072  0.0000E+00  0.1164E+01
      1.179  0.0000E+00  0.1164E+01
      1.286  0.0000E+00  0.1164E+01
      1.393  0.0000E+00  0.1164E+01
      1.500  0.0000E+00  0.1164E+01
      1.607  0.0000E+00  0.1164E+01
      1.715  0.0000E+00  0.1164E+01
      1.822  0.0000E+00  0.1164E+01
      1.929  0.0000E+00  0.1164E+01
      2.036  0.0000E+00  0.1164E+01
      2.143  0.0000E+00  0.1164E+01
      2.250  0.0000E+00  0.1164E+01
      2.358  0.4765E-16  0.1164E+01
      2.465  0.3021E-11  0.1164E+01
      2.572  0.1999E-07  0.1164E+01
      2.679  0.1439E-04  0.1164E+01
      2.786  0.1194E-02  0.1164E+01
      2.893  0.1261E-01  0.1165E+01
      3.001  0.1910E-01  0.1168E+01
      3.108  0.4280E-02  0.1168E+01
      3.215  0.1290E-03  0.1168E+01
      3.322  0.4652E-06  0.1168E+01
      3.429  0.5423E-06  0.1168E+01
      3.536  0.1442E-03  0.1168E+01
      3.644  0.4768E-02  0.1169E+01
      3.751  0.2539E-01  0.1171E+01
      3.858  0.3639E-01  0.1175E+01
      3.965  0.3007E-01  0.1178E+01
      4.072  0.1435E-01  0.1180E+01
      4.179  0.1271E-01  0.1181E+01
      4.287  0.4924E-01  0.1187E+01
      4.394  0.4667E-01  0.1192E+01
      4.501  0.2637E-01  0.1194E+01
      4.608  0.2889E-01  0.1197E+01
      4.715  0.2541E-01  0.1200E+01
      4.823  0.2422E-01  0.1203E+01
      4.930  0.2605E-01  0.1206E+01
      5.037  0.6762E-01  0.1213E+01
      5.144  0.1178E+00  0.1225E+01
      5.251  0.1363E+00  0.1240E+01
      5.358  0.7126E-01  0.1248E+01
      5.466  0.2838E-01  0.1251E+01
      5.573  0.2040E-01  0.1253E+01
      5.680  0.3707E-01  0.1257E+01
      5.787  0.5242E-01  0.1263E+01
      5.894  0.4778E-01  0.1268E+01
      6.001  0.6220E-01  0.1274E+01
      6.109  0.7184E-01  0.1282E+01
      6.216  0.1091E+00  0.1294E+01
      6.323  0.1689E+00  0.1312E+01
      6.430  0.1690E+00  0.1330E+01
      6.537  0.1845E+00  0.1350E+01
      6.644  0.2004E+00  0.1371E+01
      6.752  0.2022E+00  0.1393E+01
      6.859  0.1216E+00  0.1406E+01
      6.966  0.1955E-01  0.1408E+01
      7.073  0.5548E-03  0.1408E+01
      7.180  0.2175E-05  0.1408E+01
      7.287  0.1026E-08  0.1408E+01
      7.395  0.5435E-13  0.1408E+01
      7.502  0.0000E+00  0.1408E+01
      7.609  0.0000E+00  0.1408E+01
      7.716  0.0000E+00  0.1408E+01
      7.823  0.0000E+00  0.1408E+01
      7.930  0.0000E+00  0.1408E+01
      8.038  0.0000E+00  0.1408E+01
      8.145  0.0000E+00  0.1408E+01
      8.252  0.0000E+00  0.1408E+01
