 vasp.5.4.1 05Feb16 (build Feb 08 2018 09:21:51) complex                        
  
 executed on             LinuxIFC date 2019.10.17  11:36:48
 running on   48 total cores
 distrk:  each k-point on   48 cores,    1 groups
 distr:  one band on NCORES_PER_BAND=   6 cores,    8 groups


--------------------------------------------------------------------------------------------------------


 INCAR:
 POTCAR:    PAW_PBE Al 04Jan2001                  
 POTCAR:    PAW_PBE C 08Apr2002                   
 POTCAR:    PAW_PBE H 15Jun2001                   
 POTCAR:    PAW_PBE O 08Apr2002                   
 POTCAR:    PAW_PBE Si 05Jan2001                  
 POTCAR:    PAW_PBE Al 04Jan2001                  
   VRHFIN =Al: s2p1                                                             
   LEXCH  = PE                                                                  
   EATOM  =    53.5387 eV,    3.9350 Ry                                         
                                                                                
   TITEL  = PAW_PBE Al 04Jan2001                                                
   LULTRA =        F    use ultrasoft PP ?                                      
   IUNSCR =        1    unscreen: 0-lin 1-nonlin 2-no                           
   RPACOR =    1.500    partial core radius                                     
   POMASS =   26.981; ZVAL   =    3.000    mass and valenz                      
   RCORE  =    1.900    outmost cutoff radius                                   
   RWIGS  =    2.650; RWIGS  =    1.402    wigner-seitz radius (au A)           
   ENMAX  =  240.300; ENMIN  =  180.225 eV                                      
   ICORE  =        2    local potential                                         
   LCOR   =        T    correct aug charges                                     
   LPAW   =        T    paw PP                                                  
   EAUG   =  291.052                                                            
   DEXC   =    0.000                                                            
   RMAX   =    1.939    core radius for proj-oper                               
   RAUG   =    1.300    factor for augmentation sphere                          
   RDEP   =    1.966    radius for radial grids                                 
   RDEPT  =    1.856    core radius for aug-charge                              
                                                                                
   Atomic configuration                                                         
    6 entries                                                                   
     n  l   j            E        occ.                                          
     1  0  0.50     -1511.1048   2.0000                                         
     2  0  0.50      -108.1629   2.0000                                         
     2  1  1.50       -69.6402   6.0000                                         
     3  0  0.50        -7.7528   2.0000                                         
     3  1  1.50        -2.7121   1.0000                                         
     3  2  2.50        -2.7212   0.0000                                         
   Description                                                                  
     l       E           TYP  RCUT    TYP  RCUT                                 
     0     -7.7528455     23  1.900                                             
     0     -3.3096929     23  1.900                                             
     1     -2.7120682     23  1.900                                             
     1     13.6058260     23  1.900                                             
     2     -2.7211652      7  1.900                                             
  local pseudopotential read in
  partial core-charges read in
  partial kinetic energy density read in
  atomic valenz-charges read in
  non local Contribution for L=           0  read in
    real space projection operators read in
  non local Contribution for L=           0  read in
    real space projection operators read in
  non local Contribution for L=           1  read in
    real space projection operators read in
  non local Contribution for L=           1  read in
    real space projection operators read in
    PAW grid and wavefunctions read in
 
   number of l-projection  operators is LMAX  =           4
   number of lm-projection operators is LMMAX =           8
 
 POTCAR:    PAW_PBE C 08Apr2002                   
   VRHFIN =C: s2p2                                                              
   LEXCH  = PE                                                                  
   EATOM  =   147.1560 eV,   10.8157 Ry                                         
                                                                                
   TITEL  = PAW_PBE C 08Apr2002                                                 
   LULTRA =        F    use ultrasoft PP ?                                      
   IUNSCR =        1    unscreen: 0-lin 1-nonlin 2-no                           
   RPACOR =    1.200    partial core radius                                     
   POMASS =   12.011; ZVAL   =    4.000    mass and valenz                      
   RCORE  =    1.500    outmost cutoff radius                                   
   RWIGS  =    1.630; RWIGS  =    0.863    wigner-seitz radius (au A)           
   ENMAX  =  400.000; ENMIN  =  300.000 eV                                      
   ICORE  =        2    local potential                                         
   LCOR   =        T    correct aug charges                                     
   LPAW   =        T    paw PP                                                  
   EAUG   =  644.873                                                            
   DEXC   =    0.000                                                            
   RMAX   =    1.529    core radius for proj-oper                               
   RAUG   =    1.300    factor for augmentation sphere                          
   RDEP   =    1.501    radius for radial grids                                 
   RDEPT  =    1.300    core radius for aug-charge                              
                                                                                
   Atomic configuration                                                         
    4 entries                                                                   
     n  l   j            E        occ.                                          
     1  0  0.50      -273.3789   2.0000                                         
     2  0  0.50       -13.7508   2.0000                                         
     2  1  0.50        -5.2854   2.0000                                         
     3  2  1.50        -5.4423   0.0000                                         
   Description                                                                  
     l       E           TYP  RCUT    TYP  RCUT                                 
     0    -13.7508458     23  1.200                                             
     0     -8.2022199     23  1.200                                             
     1     -5.2854383     23  1.500                                             
     1     34.0145650     23  1.500                                             
     2     -5.4423304      7  1.500                                             
  local pseudopotential read in
  partial core-charges read in
  partial kinetic energy density read in
  atomic valenz-charges read in
  non local Contribution for L=           0  read in
    real space projection operators read in
  non local Contribution for L=           0  read in
    real space projection operators read in
  non local Contribution for L=           1  read in
    real space projection operators read in
  non local Contribution for L=           1  read in
    real space projection operators read in
    PAW grid and wavefunctions read in
 
   number of l-projection  operators is LMAX  =           4
   number of lm-projection operators is LMMAX =           8
 
 POTCAR:    PAW_PBE H 15Jun2001                   
   VRHFIN =H: ultrasoft test                                                    
   LEXCH  = PE                                                                  
   EATOM  =    12.4884 eV,    0.9179 Ry                                         
                                                                                
   TITEL  = PAW_PBE H 15Jun2001                                                 
   LULTRA =        F    use ultrasoft PP ?                                      
   IUNSCR =        0    unscreen: 0-lin 1-nonlin 2-no                           
   RPACOR =    0.000    partial core radius                                     
   POMASS =    1.000; ZVAL   =    1.000    mass and valenz                      
   RCORE  =    1.100    outmost cutoff radius                                   
   RWIGS  =    0.700; RWIGS  =    0.370    wigner-seitz radius (au A)           
   ENMAX  =  250.000; ENMIN  =  200.000 eV                                      
   RCLOC  =    0.701    cutoff for local pot                                    
   LCOR   =        T    correct aug charges                                     
   LPAW   =        T    paw PP                                                  
   EAUG   =  400.000                                                            
   RMAX   =    1.123    core radius for proj-oper                               
   RAUG   =    1.200    factor for augmentation sphere                          
   RDEP   =    1.112    radius for radial grids                                 
   RDEPT  =    0.926    core radius for aug-charge                              
                                                                                
   Atomic configuration                                                         
    2 entries                                                                   
     n  l   j            E        occ.                                          
     1  0  0.50        -6.4927   1.0000                                         
     2  1  0.50        -3.4015   0.0000                                         
   Description                                                                  
     l       E           TYP  RCUT    TYP  RCUT                                 
     0     -6.4927494     23  1.100                                             
     0      6.8029130     23  1.100                                             
     1     -4.0817478     23  1.100                                             
  local pseudopotential read in
  atomic valenz-charges read in
  non local Contribution for L=           0  read in
    real space projection operators read in
  non local Contribution for L=           0  read in
    real space projection operators read in
  non local Contribution for L=           1  read in
    real space projection operators read in
    PAW grid and wavefunctions read in
 
   number of l-projection  operators is LMAX  =           3
   number of lm-projection operators is LMMAX =           5
 
 POTCAR:    PAW_PBE O 08Apr2002                   
   VRHFIN =O: s2p4                                                              
   LEXCH  = PE                                                                  
   EATOM  =   432.3788 eV,   31.7789 Ry                                         
                                                                                
   TITEL  = PAW_PBE O 08Apr2002                                                 
   LULTRA =        F    use ultrasoft PP ?                                      
   IUNSCR =        1    unscreen: 0-lin 1-nonlin 2-no                           
   RPACOR =    1.200    partial core radius                                     
   POMASS =   16.000; ZVAL   =    6.000    mass and valenz                      
   RCORE  =    1.520    outmost cutoff radius                                   
   RWIGS  =    1.550; RWIGS  =    0.820    wigner-seitz radius (au A)           
   ENMAX  =  400.000; ENMIN  =  300.000 eV                                      
   ICORE  =        2    local potential                                         
   LCOR   =        T    correct aug charges                                     
   LPAW   =        T    paw PP                                                  
   EAUG   =  605.392                                                            
   DEXC   =    0.000                                                            
   RMAX   =    1.553    core radius for proj-oper                               
   RAUG   =    1.300    factor for augmentation sphere                          
   RDEP   =    1.550    radius for radial grids                                 
   RDEPT  =    1.329    core radius for aug-charge                              
                                                                                
   Atomic configuration                                                         
    4 entries                                                                   
     n  l   j            E        occ.                                          
     1  0  0.50      -514.6923   2.0000                                         
     2  0  0.50       -23.9615   2.0000                                         
     2  1  0.50        -9.0305   4.0000                                         
     3  2  1.50        -9.5241   0.0000                                         
   Description                                                                  
     l       E           TYP  RCUT    TYP  RCUT                                 
     0    -23.9615318     23  1.200                                             
     0     -9.5240782     23  1.200                                             
     1     -9.0304911     23  1.520                                             
     1      8.1634956     23  1.520                                             
     2     -9.5240782      7  1.500                                             
  local pseudopotential read in
  partial core-charges read in
  partial kinetic energy density read in
  kinetic energy density of atom read in
  atomic valenz-charges read in
  non local Contribution for L=           0  read in
    real space projection operators read in
  non local Contribution for L=           0  read in
    real space projection operators read in
  non local Contribution for L=           1  read in
    real space projection operators read in
  non local Contribution for L=           1  read in
    real space projection operators read in
    PAW grid and wavefunctions read in
 
   number of l-projection  operators is LMAX  =           4
   number of lm-projection operators is LMMAX =           8
 
 POTCAR:    PAW_PBE Si 05Jan2001                  
   VRHFIN =Si: s2p2                                                             
   LEXCH  = PE                                                                  
   EATOM  =   103.0669 eV,    7.5752 Ry                                         
                                                                                
   TITEL  = PAW_PBE Si 05Jan2001                                                
   LULTRA =        F    use ultrasoft PP ?                                      
   IUNSCR =        1    unscreen: 0-lin 1-nonlin 2-no                           
   RPACOR =    1.500    partial core radius                                     
   POMASS =   28.085; ZVAL   =    4.000    mass and valenz                      
   RCORE  =    1.900    outmost cutoff radius                                   
   RWIGS  =    2.480; RWIGS  =    1.312    wigner-seitz radius (au A)           
   ENMAX  =  245.345; ENMIN  =  184.009 eV                                      
   ICORE  =        2    local potential                                         
   LCOR   =        T    correct aug charges                                     
   LPAW   =        T    paw PP                                                  
   EAUG   =  322.069                                                            
   DEXC   =    0.000                                                            
   RMAX   =    1.950    core radius for proj-oper                               
   RAUG   =    1.300    factor for augmentation sphere                          
   RDEP   =    1.993    radius for radial grids                                 
   RDEPT  =    1.837    core radius for aug-charge                              
                                                                                
   Atomic configuration                                                         
    6 entries                                                                   
     n  l   j            E        occ.                                          
     1  0  0.50     -1785.8828   2.0000                                         
     2  0  0.50      -139.4969   2.0000                                         
     2  1  1.50       -95.5546   6.0000                                         
     3  0  0.50       -10.8127   2.0000                                         
     3  1  0.50        -4.0811   2.0000                                         
     3  2  1.50        -4.0817   0.0000                                         
   Description                                                                  
     l       E           TYP  RCUT    TYP  RCUT                                 
     0    -10.8127223     23  1.900                                             
     0     -7.6451159     23  1.900                                             
     1     -4.0811372     23  1.900                                             
     1      2.4879257     23  1.900                                             
     2     -4.0817478      7  1.900                                             
  local pseudopotential read in
  partial core-charges read in
  partial kinetic energy density read in
  atomic valenz-charges read in
  non local Contribution for L=           0  read in
    real space projection operators read in
  non local Contribution for L=           0  read in
    real space projection operators read in
  non local Contribution for L=           1  read in
    real space projection operators read in
  non local Contribution for L=           1  read in
    real space projection operators read in
    PAW grid and wavefunctions read in
 
   number of l-projection  operators is LMAX  =           4
   number of lm-projection operators is LMMAX =           8
 
 Optimization of the real space projectors (new method)

 maximal supplied QI-value         = 19.84
 optimisation between [QCUT,QGAM] = [ 10.12, 20.44] = [ 28.68,116.96] Ry 
 Optimized for a Real-space Cutoff    1.23 Angstroem

   l    n(q)    QCUT    max X(q) W(low)/X(q) W(high)/X(q)  e(spline) 
   0      7    10.119   176.870    0.49E-04    0.18E-03    0.39E-07
   0      7    10.119   105.762    0.46E-04    0.18E-03    0.38E-07
   1      7    10.119    55.370    0.30E-03    0.37E-03    0.12E-06
   1      7    10.119    20.208    0.27E-03    0.35E-03    0.11E-06
 Optimization of the real space projectors (new method)

 maximal supplied QI-value         = 25.13
 optimisation between [QCUT,QGAM] = [ 10.05, 20.36] = [ 28.30,116.06] Ry 
 Optimized for a Real-space Cutoff    1.30 Angstroem

   l    n(q)    QCUT    max X(q) W(low)/X(q) W(high)/X(q)  e(spline) 
   0      8    10.053   115.676    0.49E-03    0.72E-03    0.18E-06
   0      8    10.053    87.132    0.49E-03    0.71E-03    0.18E-06
   1      7    10.053     4.429    0.32E-03    0.31E-03    0.18E-06
   1      7    10.053     2.733    0.23E-03    0.19E-03    0.20E-06
 Optimization of the real space projectors (new method)

 maximal supplied QI-value         = 34.20
 optimisation between [QCUT,QGAM] = [  9.92, 20.18] = [ 27.55,114.04] Ry 
 Optimized for a Real-space Cutoff    1.26 Angstroem

   l    n(q)    QCUT    max X(q) W(low)/X(q) W(high)/X(q)  e(spline) 
   0      8     9.919    19.460    0.50E-03    0.23E-03    0.29E-06
   0      8     9.919    12.209    0.48E-03    0.23E-03    0.28E-06
   1      7     9.919     4.655    0.17E-03    0.75E-03    0.30E-06
 Optimization of the real space projectors (new method)

 maximal supplied QI-value         = 24.76
 optimisation between [QCUT,QGAM] = [ 10.15, 20.30] = [ 28.85,115.39] Ry 
 Optimized for a Real-space Cutoff    1.38 Angstroem

   l    n(q)    QCUT    max X(q) W(low)/X(q) W(high)/X(q)  e(spline) 
   0      8    10.150    20.381    0.22E-03    0.32E-03    0.29E-06
   0      8    10.150    15.268    0.23E-03    0.35E-03    0.30E-06
   1      8    10.150     5.964    0.46E-03    0.53E-03    0.21E-06
   1      8    10.150     5.382    0.38E-03    0.45E-03    0.19E-06
 Optimization of the real space projectors (new method)

 maximal supplied QI-value         = 19.84
 optimisation between [QCUT,QGAM] = [ 10.12, 20.44] = [ 28.68,116.96] Ry 
 Optimized for a Real-space Cutoff    1.23 Angstroem

   l    n(q)    QCUT    max X(q) W(low)/X(q) W(high)/X(q)  e(spline) 
   0      7    10.119   159.560    0.56E-04    0.22E-03    0.45E-07
   0      7    10.119   115.863    0.56E-04    0.21E-03    0.45E-07
   1      7    10.119    88.339    0.34E-03    0.49E-03    0.11E-06
   1      7    10.119    48.592    0.33E-03    0.48E-03    0.11E-06
  PAW_PBE Al 04Jan2001                  :
 energy of atom  1       EATOM=  -53.5387
 kinetic energy error for atom=    0.0005 (will be added to EATOM!!)
  PAW_PBE C 08Apr2002                   :
 energy of atom  2       EATOM= -147.1560
 kinetic energy error for atom=    0.0288 (will be added to EATOM!!)
  PAW_PBE H 15Jun2001                   :
 energy of atom  3       EATOM=  -12.4884
 kinetic energy error for atom=    0.0098 (will be added to EATOM!!)
  PAW_PBE O 08Apr2002                   :
 energy of atom  4       EATOM= -432.3788
 kinetic energy error for atom=    0.1156 (will be added to EATOM!!)
  PAW_PBE Si 05Jan2001                  :
 energy of atom  5       EATOM= -103.0669
 kinetic energy error for atom=    0.0012 (will be added to EATOM!!)
 
 
 POSCAR: Al  C  H  O Si                          
  positions in cartesian coordinates
  No initial velocities read in
 exchange correlation table for  LEXCH =        8
   RHO(1)=    0.500       N(1)  =     2000
   RHO(2)=  100.500       N(2)  =     4000
 


--------------------------------------------------------------------------------------------------------


 ion  position               nearest neighbor table
   1  0.562  0.667  0.562-  43 1.62  72 1.62  44 1.63  67 1.63   3 1.78   2 2.45  98 3.10 103 3.13
                           110 3.13  95 3.14
   2  0.703  0.665  0.662-   4 1.08   5 1.08   3 1.08  44 1.50   1 2.45 103 2.56
   3  0.698  0.697  0.597-   2 1.08   1 1.78
   4  0.677  0.577  0.670-   2 1.08
   5  0.735  0.721  0.719-   2 1.08
   6  0.019  0.334  0.834-  88 1.62 104 1.62
   7  0.214  0.427  0.535-  82 1.62  95 1.62
   8  0.547  0.094  0.203- 106 1.62 111 1.62
   9  0.880  0.761  0.867- 105 1.62  79 1.62
  10  0.453  0.547  0.799-  83 1.62 103 1.62
  11  0.121  0.880  0.131-  84 1.62  86 1.62
  12  0.094  0.547  0.798-  94 1.62  88 1.62
  13  0.429  0.215  0.466- 112 1.62  99 1.62
  14  0.760  0.880  0.133-  97 1.62  81 1.62
  15  0.214  0.787  0.534-  92 1.62 100 1.62
  16  0.900  0.099  0.124-  81 1.63  90 1.63
  17  0.239  0.120  0.868- 107 1.62 101 1.62
  18  0.864  0.432  0.457-  91 1.63  93 1.63
  19  0.432  0.864  0.544- 110 1.63  92 1.63
  20  0.982  0.315  0.167-  90 1.62  80 1.62
  21  0.648  1.000  0.500-  89 1.62 110 1.62
  22  0.000  0.647  0.500- 100 1.62  93 1.62
  23  0.333  0.315  0.167- 108 1.62  87 1.62
  24  0.981  0.666  0.167-  96 1.62  84 1.62
  25  0.352  0.352  0.501-  95 1.62  99 1.62
  26  0.684  0.018  0.166- 106 1.62  81 1.62
  27  0.667  0.982  0.834-  78 1.62 109 1.62
  28  0.001  0.353  0.499-  82 1.62  91 1.62
  29  0.788  0.213  0.466-  91 1.62  89 1.62
  30  0.334  0.018  0.167-  86 1.62 111 1.62
  31  0.906  0.453  0.201-  80 1.62  96 1.62
  32  0.315  0.334  0.834-  83 1.62 107 1.62
  33  0.453  0.907  0.799-  85 1.62  78 1.62
  34  0.073  0.669  0.667-  94 1.63 100 1.63
  35  0.669  0.072  0.333-  89 1.63 106 1.63
  36  0.998  0.739  1.000-  79 1.63  84 1.63
  37  0.595  0.929  0.667- 110 1.63  78 1.63
  38  0.928  0.593  0.333-  93 1.63  96 1.63
  39  0.260  0.260  0.000- 107 1.63  87 1.63
  40  0.405  0.332  0.334-  99 1.63 108 1.63
  41  0.787  0.574  0.465-  93 1.62  98 1.62
  42  0.740  0.999  1.000- 109 1.63  81 1.63
  43  0.573  0.787  0.536- 110 1.62   1 1.62
  44  0.595  0.666  0.667-   2 1.50   1 1.63 103 1.63
  45  0.262  0.001  1.000- 101 1.63  86 1.63
  46  0.072  0.404  0.667-  88 1.63  82 1.63
  47  0.405  0.073  0.334- 112 1.63 111 1.63
  48  0.334  0.406  0.667-  95 1.63  83 1.63
  49  0.741  0.742  1.000- 105 1.63  97 1.63
  50  0.546  0.454  0.202- 108 1.62 102 1.62
  51  0.880  0.121  0.868- 109 1.62 104 1.62
  52  0.333  0.927  0.667-  85 1.63  92 1.63
  53  0.568  0.433  0.456-  98 1.63  99 1.63
  54  0.668  0.596  0.333-  98 1.63 102 1.63
  55  0.927  0.334  0.333-  91 1.63  80 1.63
  56  0.353  0.001  0.500-  92 1.62 112 1.62
  57  0.315  0.982  0.833- 101 1.62  85 1.62
  58  0.902  0.803  0.124-  97 1.63  84 1.63
  59  0.235  0.766  0.791-  85 1.63  94 1.63
  60  0.119  0.239  0.132-  87 1.62  90 1.62
  61  0.569  0.136  0.455-  89 1.63 112 1.63
  62  0.234  0.469  0.790-  88 1.63  83 1.63
  63  0.198  0.098  0.124-  87 1.63  86 1.63
  64  0.000  0.261  0.000- 104 1.63  90 1.63
  65  0.099  0.901  0.877-  79 1.63 101 1.63
  66  0.803  0.902  0.875- 109 1.63 105 1.63
  67  0.433  0.568  0.544-   1 1.63  95 1.63
  68  0.531  0.766  0.789-  78 1.63 103 1.63
  69  0.765  0.531  0.211-  96 1.63 102 1.63
  70  0.137  0.568  0.545- 100 1.63  82 1.63
  71  0.469  0.235  0.210- 111 1.63 108 1.63
  72  0.649  0.649  0.500-  98 1.62   1 1.62
  73  0.766  0.234  0.209- 106 1.63  80 1.63
  74  0.666  0.685  0.834- 103 1.62 105 1.62
  75  0.019  0.685  0.834-  94 1.62  79 1.62
  76  0.099  0.198  0.877- 104 1.63 107 1.63
  77  0.685  0.666  0.166- 102 1.62  97 1.62
  78  0.562  0.895  0.772-  27 1.62  33 1.62  37 1.63  68 1.63 109 3.10 110 3.12  85 3.13 103 3.14

  79  1.000  0.772  0.895-   9 1.62  75 1.62  36 1.63  65 1.63  94 3.10 105 3.12  84 3.13 101 3.14

  80  0.895  0.334  0.228-  31 1.62  20 1.62  55 1.63  73 1.63  90 3.10  96 3.12  91 3.13 106 3.13

  81  0.771  0.999  0.105-  14 1.62  26 1.62  42 1.63  16 1.63 106 3.10  97 3.12 109 3.14  90 3.14

  82  0.106  0.439  0.562-  28 1.62   7 1.62  46 1.63  70 1.63  91 3.11  88 3.12  95 3.13 100 3.14

  83  0.334  0.439  0.772-  10 1.62  32 1.62  48 1.63  62 1.63 107 3.10  95 3.13 103 3.13  88 3.14

  84  0.000  0.772  0.105-  11 1.62  24 1.62  36 1.63  58 1.63  96 3.11  97 3.13  86 3.13  79 3.13

  85  0.334  0.895  0.772-  33 1.62  57 1.62  52 1.63  59 1.63 101 3.10  78 3.13  94 3.13  92 3.13

  86  0.228  1.000  0.105-  11 1.62  30 1.62  45 1.63  63 1.63 111 3.10 101 3.13  84 3.13  87 3.13

  87  0.228  0.228  0.106-  60 1.62  23 1.62  39 1.63  63 1.63 108 3.10  90 3.13 107 3.13  86 3.13

  88  0.105  0.439  0.772-  12 1.62   6 1.62  46 1.63  62 1.63 104 3.10  82 3.12  94 3.13  83 3.14

  89  0.668  0.105  0.438-  21 1.62  29 1.62  35 1.63  61 1.63 110 3.11  91 3.12 106 3.13 112 3.14

  90  0.000  0.228  0.105-  60 1.62  20 1.62  64 1.63  16 1.63  80 3.10  87 3.13 104 3.13  81 3.14

  91  0.895  0.333  0.438-  28 1.62  29 1.62  55 1.63  18 1.63  82 3.11  89 3.12  93 3.13  80 3.13

  92  0.334  0.895  0.561-  56 1.62  15 1.62  52 1.63  19 1.63 112 3.11 100 3.12  85 3.13 110 3.13

  93  0.895  0.561  0.438-  22 1.62  41 1.62  38 1.63  18 1.63 100 3.11  91 3.13  98 3.13  96 3.13

  94  0.105  0.667  0.772-  12 1.62  75 1.62  34 1.63  59 1.63  79 3.10 100 3.13  85 3.13  88 3.13

  95  0.334  0.438  0.562-   7 1.62  25 1.62  48 1.63  67 1.63  99 3.10  83 3.13  82 3.13   1 3.14

  96  0.895  0.561  0.228-  31 1.62  24 1.62  38 1.63  69 1.63  84 3.11  80 3.12  93 3.13 102 3.14

  97  0.773  0.773  0.105-  14 1.62  77 1.62  49 1.63  58 1.63 102 3.11  81 3.12  84 3.13 105 3.14

  98  0.668  0.563  0.438-  72 1.62  41 1.62  54 1.63  53 1.63   1 3.10 102 3.12  93 3.13  99 3.14

  99  0.439  0.333  0.439-  13 1.62  25 1.62  40 1.63  53 1.63  95 3.10 112 3.12 108 3.13  98 3.14

 100  0.106  0.667  0.562-  22 1.62  15 1.62  34 1.63  70 1.63  93 3.11  92 3.12  94 3.13  82 3.14

 101  0.228  0.001  0.895-  17 1.62  57 1.62  45 1.63  65 1.63  85 3.10 107 3.13  86 3.13  79 3.14

 102  0.667  0.562  0.228-  50 1.62  77 1.62  54 1.63  69 1.63  97 3.11  98 3.12 108 3.13  96 3.14

 103  0.561  0.667  0.772-  74 1.62  10 1.62  44 1.63  68 1.63   2 2.56 105 3.10   1 3.13  83 3.13
                            78 3.14
 104  1.000  0.229  0.895-  51 1.62   6 1.62  64 1.63  76 1.63  88 3.10 109 3.13  90 3.13 107 3.14

 105  0.773  0.773  0.895-  74 1.62   9 1.62  49 1.63  66 1.63 103 3.10  79 3.12 109 3.13  97 3.14

 106  0.667  0.105  0.228-   8 1.62  26 1.62  35 1.63  73 1.63  81 3.10  89 3.13  80 3.13 111 3.14

 107  0.228  0.228  0.895-  17 1.62  32 1.62  39 1.63  76 1.63  83 3.10 101 3.13  87 3.13 104 3.14

 108  0.438  0.333  0.229-  50 1.62  23 1.62  40 1.63  71 1.63  87 3.10  99 3.13 111 3.13 102 3.13

 109  0.772  0.000  0.895-  51 1.62  27 1.62  42 1.63  66 1.63  78 3.10 104 3.13 105 3.13  81 3.14

 110  0.562  0.895  0.562-  43 1.62  21 1.62  37 1.63  19 1.63  89 3.11  78 3.12   1 3.13  92 3.13

 111  0.439  0.105  0.229-   8 1.62  30 1.62  47 1.63  71 1.63  86 3.10 112 3.13 108 3.13 106 3.14

 112  0.440  0.106  0.438-  56 1.62  13 1.62  47 1.63  61 1.63  92 3.11  99 3.12 111 3.13  89 3.14

 
  LATTYP: Found a triclinic cell.
 ALAT       =    13.7322043351
 B/A-ratio  =     0.9994204431
 C/A-ratio  =     1.0843400086
 COS(alpha) =     0.0000550692
 COS(beta)  =     0.0002592822
 COS(gamma) =     0.4999019565
  
  Lattice vectors:
  
 A1 = (   6.8687391430, -11.8909148166,  -0.0018197328)
 A2 = (  -6.8608326708, -11.8862902565,  -0.0004082906)
 A3 = (   0.0015106504,  -0.0013072721, -14.8903784329)


Analysis of symmetry for initial positions (statically):
=====================================================================
 Subroutine PRICEL returns:
 Original cell was already a primitive cell.
 

 Routine SETGRP: Setting up the symmetry group for a 
 triclinic supercell.


 Subroutine GETGRP returns: Found  1 space group operations
 (whereof  1 operations were pure point group operations)
 out of a pool of  2 trial point group operations.


The static configuration has the point symmetry C_1 .


Analysis of symmetry for dynamics (positions and initial velocities):
=====================================================================
 Subroutine PRICEL returns:
 Original cell was already a primitive cell.
 

 Routine SETGRP: Setting up the symmetry group for a 
 triclinic supercell.


 Subroutine GETGRP returns: Found  1 space group operations
 (whereof  1 operations were pure point group operations)
 out of a pool of  2 trial point group operations.


The dynamic configuration has the point symmetry C_1 .


 Subroutine INISYM returns: Found  1 space group operations
 (whereof  1 operations are pure point group operations),
 and found     1 'primitive' translations

 
 
 KPOINTS: KPOINTS created by Atomic Simulation Env

Automatic generation of k-mesh.
Space group operators:
 irot       det(A)        alpha          n_x          n_y          n_z        tau_x        tau_y        tau_z
    1     1.000000     0.000001     1.000000     0.000000     0.000000     0.000000     0.000000     0.000000
 
 Subroutine IBZKPT returns following result:
 ===========================================
 
 Found      1 irreducible k-points:
 
 Following reciprocal coordinates:
            Coordinates               Weight
  0.000000  0.000000  0.000000      1.000000
 
 Following cartesian coordinates:
            Coordinates               Weight
  0.000000  0.000000  0.000000      1.000000
 


--------------------------------------------------------------------------------------------------------




 Dimension of arrays:
   k-points           NKPTS =      1   k-points in BZ     NKDIM =      1   number of bands    NBANDS=    352
   number of dos      NEDOS =    301   number of ions     NIONS =    112
   non local maximal  LDIM  =      4   non local SUM 2l+1 LMDIM =      8
   total plane-waves  NPLWV = 392000
   max r-space proj   IRMAX =   1827   max aug-charges    IRDMAX=   6476
   dimension x,y,z NGX =    70 NGY =   70 NGZ =   80
   dimension x,y,z NGXF=   140 NGYF=  140 NGZF=  160
   support grid    NGXF=   140 NGYF=  140 NGZF=  160
   ions per type =               1   1   3  72  35
 NGX,Y,Z   is equivalent  to a cutoff of   8.48,  8.47,  8.93 a.u.
 NGXF,Y,Z  is equivalent  to a cutoff of  16.95, 16.95, 17.86 a.u.


 I would recommend the setting:
   dimension x,y,z NGX =    67 NGY =   67 NGZ =   73
 SYSTEM =  unknown system                          
 POSCAR =  Al  C  H  O Si                          

 Startparameter for this run:
   NWRITE =      2    write-flag & timer
   PREC   = normal    normal or accurate (medium, high low for compatibility)
   ISTART =      0    job   : 0-new  1-cont  2-samecut
   ICHARG =      2    charge: 1-file 2-atom 10-const
   ISPIN  =      1    spin polarized calculation?
   LNONCOLLINEAR =      F non collinear calculations
   LSORBIT =      F    spin-orbit coupling
   INIWAV =      1    electr: 0-lowe 1-rand  2-diag
   LASPH  =      F    aspherical Exc in radial PAW
   METAGGA=      F    non-selfconsistent MetaGGA calc.

 Electronic Relaxation 1
   ENCUT  =  400.0 eV  29.40 Ry    5.42 a.u.  22.39 22.39 24.28*2*pi/ulx,y,z
   ENINI  =  400.0     initial cutoff
   ENAUG  =  644.9 eV  augmentation charge cutoff
   NELM   =     60;   NELMIN=  2; NELMDL= -5     # of ELM steps 
   EDIFF  = 0.1E-05   stopping-criterion for ELM
   LREAL  =      T    real-space projection
   NLSPLINE    = F    spline interpolate recip. space projectors
   LCOMPAT=      F    compatible to vasp.4.4
   GGA_COMPAT  = T    GGA compatible to vasp.4.4-vasp.4.6
   LMAXPAW     = -100 max onsite density
   LMAXMIX     =    2 max onsite mixed and CHGCAR
   VOSKOWN=      0    Vosko Wilk Nusair interpolation
   ROPT   =   -0.00050  -0.00050  -0.00050  -0.00050
   ROPT   =   -0.00050
 Ionic relaxation
   EDIFFG = -.5E-01   stopping-criterion for IOM
   NSW    =    500    number of steps for IOM
   NBLOCK =      1;   KBLOCK =    500    inner block; outer block 
   IBRION =      2    ionic relax: 0-MD 1-quasi-New 2-CG
   NFREE  =      1    steps in history (QN), initial steepest desc. (CG)
   ISIF   =      2    stress and relaxation
   IWAVPR =     11    prediction:  0-non 1-charg 2-wave 3-comb
   ISYM   =      2    0-nonsym 1-usesym 2-fastsym
   LCORR  =      T    Harris-Foulkes like correction to forces

   POTIM  = 0.5000    time-step for ionic-motion
   TEIN   =    0.0    initial temperature
   TEBEG  =    0.0;   TEEND  =   0.0 temperature during run
   SMASS  =  -3.00    Nose mass-parameter (am)
   estimated Nose-frequenzy (Omega)   =  0.10E-29 period in steps =****** mass=  -0.431E-26a.u.
   SCALEE = 1.0000    scale energy and forces
   NPACO  =    256;   APACO  = 16.0  distance and # of slots for P.C.
   PSTRESS=    0.0 pullay stress

  Mass of Ions in am
   POMASS =  26.98 12.01  1.00 16.00 28.09
  Ionic Valenz
   ZVAL   =   3.00  4.00  1.00  6.00  4.00
  Atomic Wigner-Seitz radii
   RWIGS  =  -1.00 -1.00 -1.00 -1.00 -1.00
  virtual crystal weights 
   VCA    =   1.00  1.00  1.00  1.00  1.00
   NELECT =     582.0000    total number of electrons
   NUPDOWN=      -1.0000    fix difference up-down

 DOS related values:
   EMIN   =  10.00;   EMAX   =-10.00  energy-range for DOS
   EFERMI =   0.00
   ISMEAR =     0;   SIGMA  =   0.10  broadening in eV -4-tet -1-fermi 0-gaus

 Electronic relaxation 2 (details)
   IALGO  =     38    algorithm
   LDIAG  =      T    sub-space diagonalisation (order eigenvalues)
   LSUBROT=      F    optimize rotation matrix (better conditioning)
   TURBO    =      0    0=normal 1=particle mesh
   IRESTART =      0    0=no restart 2=restart with 2 vectors
   NREBOOT  =      0    no. of reboots
   NMIN     =      0    reboot dimension
   EREF     =   0.00    reference energy to select bands
   IMIX   =      4    mixing-type and parameters
     AMIX     =   0.40;   BMIX     =  1.00
     AMIX_MAG =   1.60;   BMIX_MAG =  1.00
     AMIN     =   0.10
     WC   =   100.;   INIMIX=   1;  MIXPRE=   1;  MAXMIX= -45

 Intra band minimization:
   WEIMIN = 0.0010     energy-eigenvalue tresh-hold
   EBREAK =  0.71E-09  absolut break condition
   DEPER  =   0.30     relativ break condition  

   TIME   =   0.40     timestep for ELM

  volume/ion in A,a.u.               =      21.70       146.44
  Fermi-wavevector in a.u.,A,eV,Ry     =   1.016603  1.921101 14.061368  1.033481
  Thomas-Fermi vector in A             =   2.149956
 
 Write flags
   LWAVE  =      F    write WAVECAR
   LCHARG =      F    write CHGCAR
   LVTOT  =      F    write LOCPOT, total local potential
   LVHAR  =      F    write LOCPOT, Hartree potential only
   LELF   =      F    write electronic localiz. function (ELF)
   LORBIT =      0    0 simple, 1 ext, 2 COOP (PROOUT)


 Dipole corrections
   LMONO  =      F    monopole corrections only (constant potential shift)
   LDIPOL =      F    correct potential (dipole corrections)
   IDIPOL =      0    1-x, 2-y, 3-z, 4-all directions 
   EPSILON=  1.0000000 bulk dielectric constant

 Exchange correlation treatment:
   GGA     =    --    GGA type
   LEXCH   =     8    internal setting for exchange type
   VOSKOWN=      0    Vosko Wilk Nusair interpolation
   LHFCALC =     F    Hartree Fock is set to
   LHFONE  =     F    Hartree Fock one center treatment
   AEXX    =    0.0000 exact exchange contribution

 Linear response parameters
   LEPSILON=     F    determine dielectric tensor
   LRPA    =     F    only Hartree local field effects (RPA)
   LNABLA  =     F    use nabla operator in PAW spheres
   LVEL    =     F    velocity operator in full k-point grid
   LINTERFAST=   F  fast interpolation
   KINTER  =     0    interpolate to denser k-point grid
   CSHIFT  =0.1000    complex shift for real part using Kramers Kronig
   OMEGAMAX=  -1.0    maximum frequency
   DEG_THRESHOLD= 0.2000000E-02 threshold for treating states as degnerate
   RTIME   =    0.100 relaxation time in fs

 Orbital magnetization related:
   ORBITALMAG=     F  switch on orbital magnetization
   LCHIMAG   =     F  perturbation theory with respect to B field
   DQ        =  0.001000  dq finite difference perturbation B field



--------------------------------------------------------------------------------------------------------


 conjugate gradient relaxation of ions
 charge density and potential will be updated during run
 non-spin polarized calculation
 Variant of blocked Davidson
 Davidson routine will perform the subspace rotation
 perform sub-space diagonalisation
    after iterative eigenvector-optimisation
 modified Broyden-mixing scheme, WC =      100.0
 initial mixing is a Kerker type mixing with AMIX =  0.4000 and BMIX =      1.0000
 Hartree-type preconditioning will be used
 using additional bands           61
 real space projection scheme for non local part
 use partial core corrections
 calculate Harris-corrections to forces 
   (improved forces if not selfconsistent)
 use gradient corrections 
 use of overlap-Matrix (Vanderbilt PP)
 Gauss-broadening in eV      SIGMA  =   0.10


--------------------------------------------------------------------------------------------------------


  energy-cutoff  :      400.00
  volume of cell :     2430.49
      direct lattice vectors                 reciprocal lattice vectors
    13.729571814 -0.004624560 -0.001411442     0.072849658  0.042081312  0.000003696
    -6.868739143 11.890914817  0.001819733     0.000028332  0.084114186 -0.000007382
    -0.001510650  0.001307272 14.890378433     0.000006902 -0.000006291  0.067157462

  length of vectors
    13.729572665 13.732204335 14.890378567     0.084130313  0.084114191  0.067157462


 
 k-points in units of 2pi/SCALE and weight: KPOINTS created by Atomic Simulation Env
   0.00000000  0.00000000  0.00000000       1.000
 
 k-points in reciprocal lattice and weights: KPOINTS created by Atomic Simulation Env
   0.00000000  0.00000000  0.00000000       1.000
 
 position of ions in fractional coordinates (direct lattice) 
   0.56226675  0.66695774  0.56210364
   0.70344234  0.66514516  0.66181607
   0.69847612  0.69652556  0.59658482
   0.67725924  0.57742419  0.67036017
   0.73459165  0.72148573  0.71850324
   0.01866908  0.33415778  0.83400028
   0.21409633  0.42707628  0.53524471
   0.54684068  0.09367858  0.20255533
   0.88033373  0.76060205  0.86690236
   0.45307532  0.54735605  0.79899071
   0.12054702  0.87953215  0.13137146
   0.09356834  0.54704988  0.79753904
   0.42908437  0.21450775  0.46642178
   0.76014491  0.88009731  0.13310068
   0.21378515  0.78703006  0.53379068
   0.90028721  0.09915112  0.12387986
   0.23937203  0.11999702  0.86781467
   0.86357454  0.43151607  0.45676915
   0.43242939  0.86426723  0.54370028
   0.98229452  0.31530457  0.16694177
   0.64817130  0.99953414  0.49955176
   0.00043896  0.64720847  0.49975529
   0.33298125  0.31452668  0.16704582
   0.98098642  0.66644197  0.16658376
   0.35239198  0.35174152  0.50050091
   0.68385168  0.01788778  0.16566335
   0.66669377  0.98186541  0.83352303
   0.00116992  0.35335410  0.49925248
   0.78762049  0.21296121  0.46562061
   0.33373752  0.01849548  0.16668310
   0.90604538  0.45293233  0.20052744
   0.31495955  0.33394208  0.83414386
   0.45343721  0.90696615  0.79859222
   0.07328832  0.66873069  0.66657635
   0.66878397  0.07248771  0.33291341
   0.99839898  0.73872197  0.99995682
   0.59484588  0.92882677  0.66664679
   0.92775304  0.59328347  0.33317011
   0.26044392  0.26022676  0.00041043
   0.40496547  0.33173231  0.33375974
   0.78717796  0.57370545  0.46504080
   0.73962094  0.99881333  0.99981828
   0.57346146  0.78656886  0.53553586
   0.59502641  0.66649762  0.66714202
   0.26173374  0.00093142  0.99988745
   0.07171686  0.40445488  0.66663892
   0.40502615  0.07341303  0.33357486
   0.33388493  0.40556150  0.66715660
   0.74130148  0.74157771  0.99990420
   0.54626077  0.45356368  0.20249386
   0.88005958  0.12063688  0.86801315
   0.33290645  0.92704622  0.66660571
   0.56813333  0.43345568  0.45573462
   0.66787315  0.59620520  0.33318521
   0.92707692  0.33365692  0.33309150
   0.35337550  0.00075342  0.50030064
   0.31507762  0.98219159  0.83302738
   0.90175571  0.80301538  0.12424376
   0.23451294  0.76604255  0.79065746
   0.11938162  0.23874371  0.13244245
   0.56886513  0.13557705  0.45505081
   0.23426633  0.46883248  0.78952332
   0.19789636  0.09842721  0.12373094
   0.00001922  0.26079870  0.00040007
   0.09929620  0.90094046  0.87711490
   0.80289743  0.90184265  0.87522089
   0.43312280  0.56754296  0.54387454
   0.53149813  0.76617893  0.78927568
   0.76513887  0.53069600  0.21050735
   0.13681379  0.56845723  0.54503361
   0.46898042  0.23467224  0.20963910
   0.64913284  0.64895484  0.50026552
   0.76597739  0.23394914  0.20912494
   0.66631742  0.68549264  0.83419044
   0.01850874  0.68504333  0.83354036
   0.09893653  0.19841567  0.87681325
   0.68535530  0.66617265  0.16567902
   0.56160226  0.89548670  0.77161425
   0.99963954  0.77178059  0.89479173
   0.89488496  0.33352588  0.22786143
   0.77144754  0.99942864  0.10518678
   0.10592703  0.43874517  0.56189606
   0.33357859  0.43886748  0.77206256
   0.00004570  0.77197853  0.10511512
   0.33358113  0.89516793  0.77182313
   0.22843925  0.99974974  0.10499738
   0.22769218  0.22754836  0.10550695
   0.10497779  0.43863490  0.77151563
   0.66790209  0.10513258  0.43790817
   0.00006699  0.22803651  0.10547304
   0.89486199  0.33327201  0.43832718
   0.33354587  0.89477868  0.56149855
   0.89471565  0.56103274  0.43828992
   0.10537040  0.66709381  0.77164668
   0.33375432  0.43838063  0.56208668
   0.89452606  0.56088599  0.22808763
   0.77256536  0.77270690  0.10534218
   0.66765425  0.56266940  0.43814029
   0.43903444  0.33331600  0.43871159
   0.10601279  0.66735158  0.56164940
   0.22845574  0.00058940  0.89487405
   0.66657228  0.56165633  0.22836123
   0.56149853  0.66686609  0.77198996
   0.99987949  0.22851408  0.89520799
   0.77276445  0.77281234  0.89450369
   0.66676104  0.10493668  0.22800227
   0.22801816  0.22811264  0.89521057
   0.43835039  0.33325187  0.22863568
   0.77236684  0.00040877  0.89457899
   0.56181870  0.89478902  0.56175798
   0.43865925  0.10549905  0.22850692
   0.43951841  0.10602589  0.43844766
 
 position of ions in cartesian coordinates  (Angst):
   3.13767387  7.92887226  8.37035605
   5.08825370  7.90679652  9.85490931
   4.80462437  8.27987590  8.88365532
   5.33129053  6.86384617  9.98201142
   5.12884618  8.57666749 10.69906120
  -2.04018398  3.97444557 12.41916148
   0.00516683  5.07803723  7.97047131
   6.86412868  1.11165988  3.01552409
   6.86091852  9.04131631 12.90864579
   2.45967719  6.50751342 11.89763054
  -4.38641630 10.45805608  1.95760117
  -2.47409455  6.50553345 11.87652160
   4.41704226  2.54931881  6.94498148
   4.39110424 10.46182077  1.98244813
  -2.47153195  9.35821655  7.94947571
  11.67932760  1.17499606  1.84352770
   2.46093627  1.42690188 12.92196933
   8.89184726  5.12772432  6.80103192
  -0.00017721 10.27563902  8.09686528
  11.32048612  3.74493534  2.48501340
   2.03282057 11.88303081  7.43941878
  -4.44023437  7.69655209  7.44272249
   2.41103592  3.73868848  2.48747792
   8.89065580  7.92028589  2.48032330
   2.42141407  4.18155313  7.45279070
   9.26587399  0.20975612  2.46585735
   2.40798352 11.67328437 12.41231903
  -2.41178878  4.20235071  7.43469978
   9.35021378  2.52926985  6.93254294
   4.45478087  0.21860267  2.48153706
   9.32823816  5.38185179  2.98547480
   2.02923859  3.97051079 12.42088095
  -0.00542160 10.78360429 11.89235079
  -3.58812641  7.95235214  9.92668761
   8.68371544  0.85928756  4.95639456
   8.63199138  8.78077005 14.88967053
   1.78610335 11.04272056  9.92747368
   8.66203935  7.05082830  4.96079924
   1.78835324  3.09313028  0.00621735
   3.28091567  3.94316413  4.96984087
   6.86628073  6.81885026  6.92456647
   3.29258027 11.87469081 14.88844619
   2.46983497  9.35107142  7.97495357
   3.59045173  7.92338684  9.93437017
   3.58558406  0.01117219 14.88833484
  -1.79446031  4.80987833  9.92714060
   5.05607673  0.87151112  4.96661781
   1.79739309  4.82182535  9.93448096
   5.08253756  8.81591632 14.88925509
   4.38421001  5.39102556  3.01526452
  11.25290671  1.43154766 12.92402173
  -1.79798266 11.02275956  9.92722840
   4.82224490  5.15215291  6.78604783
   5.07393100  7.08677223  4.96139616
  10.43606358  3.96363415  4.95915718
   4.84576342  0.00797871  7.44916848
  -2.42179536 11.67878838 12.40543557
   6.86482885  9.54457969  1.85022513
  -2.04317863  9.10889578 11.77425180
  -0.00100987  2.83850222  1.97238418
   6.87834387  1.61009933  6.77532252
  -0.00510437  5.57479584 11.75682354
   2.04077452  1.16963610  1.84230036
  -1.79109498  3.10113557  0.00643176
  -4.82635566 10.71369370 13.06207207
   4.82759394 10.72116519 13.03287810
   2.04746447  6.74731301  8.09891922
   2.03336620  9.10914225 11.75325770
   6.85949875  6.30719767  3.13441989
  -2.02701299  6.75955626  8.11659803
   4.82668120  2.78857285  3.12137058
   4.45405866  7.71431878  7.44940755
   8.90929007  2.77860032  3.11329406
   4.43852261  8.14914372 12.42171824
  -4.45252599  8.14679595 12.41295186
  -0.00583390  2.36003257 13.05630259
   4.83361842  7.91844935  2.46726817
   1.55852837 10.64656765 11.49046504
   8.42211153  9.17372411 13.32378094
   9.99514085  3.96208731  3.39228680
   3.72667086 11.88069068  1.56700087
  -1.56014217  5.21732612  8.36749383
   1.56425861  5.21800249 11.49663143
  -5.30205048  9.17966817  1.56660867
  -1.56991484 10.64383194 11.49389668
  -3.73080573 11.88701979  1.56494757
   1.56298651  2.70484308  1.57113113
  -1.57273406  5.21629336 11.48880974
   8.44721989  1.24760621  6.51986702
  -1.56556289  2.71170033  1.57094842
   9.99625135  3.95934370  6.52620104
  -1.56740767 10.63892862  8.36208342
   8.42981320  6.66762777  6.52606093
  -3.13656861  7.93287717 11.49117633
   1.57033255  5.21193805  8.37001010
   8.42853570  6.66560893  3.39606922
   5.29931035  9.18475691  1.56890064
   5.30111569  6.68813910  6.52415633
   3.73763148  3.96197533  6.53256840
  -3.12920221  7.93566475  8.36423682
   3.13119924  0.00712180 13.32469185
   5.29353617  6.67582346  3.40046638
   3.12743895  7.92806033 11.49564369
  12.15696135  2.71378778 13.32899027
   5.30012731  9.18704139 13.31981400
   8.43321644  1.24500776  3.39428988
   1.56239319  2.71258374 13.33011746
   3.72899763  3.96094131  3.40445958
  10.60010695  0.00245822 13.31953036
   1.56660922 10.63799623  8.36562414
   5.29761308  1.25275033  3.40212733
   5.30547301  1.25928542  6.52822412
 


--------------------------------------------------------------------------------------------------------


 k-point  1 :   0.0000 0.0000 0.0000  plane waves:   44137

 maximum and minimum number of plane-waves per node :      7363     7350

 maximum number of plane-waves:     44137
 maximum index in each direction: 
   IXMAX=   22   IYMAX=   22   IZMAX=   24
   IXMIN=  -22   IYMIN=  -22   IZMIN=  -24

 WARNING: aliasing errors must be expected set NGX to  90 to avoid them
 WARNING: aliasing errors must be expected set NGY to  90 to avoid them
 WARNING: aliasing errors must be expected set NGZ to  98 to avoid them
 aliasing errors are usually negligible using standard VASP settings
 and one can safely disregard these warnings

 real space projection operators:
  total allocation   :      10721.66 KBytes
  max/ min on nodes  :       1851.29       1696.35


 parallel 3D FFT for wavefunctions:
    minimum data exchange during FFTs selected (reduces bandwidth)
 parallel 3D FFT for charge:
    minimum data exchange during FFTs selected (reduces bandwidth)


 total amount of memory used by VASP on root node    53529. kBytes
========================================================================

   base      :      30000. kBytes
   nonlr-proj:       5703. kBytes
   fftplans  :       4343. kBytes
   grid      :       8131. kBytes
   one-center:         58. kBytes
   wavefun   :       5294. kBytes
 
     INWAV:  cpu time    0.0000: real time    0.0001
 Broyden mixing: mesh for mixing (old mesh)
   NGX = 45   NGY = 45   NGZ = 49
  (NGX  =140   NGY  =140   NGZ  =160)
  gives a total of  99225 points

 initial charge density was supplied:
 charge density of overlapping atoms calculated
 number of electron     582.0000000 magnetization 
 keeping initial charge density in first step


--------------------------------------------------------------------------------------------------------


 Maximum index for non-local projection operator          359
 Maximum index for augmentation-charges          336 (set IRDMAX)


--------------------------------------------------------------------------------------------------------


 First call to EWALD:  gamma=   0.132
 Maximum number of real-space cells 3x 3x 3
 Maximum number of reciprocal cells 3x 3x 3

 FEWALD executed in parallel
    FEWALD:  cpu time    0.0077: real time    0.0100


----------------------------------------- Iteration    1(   1)  ---------------------------------------


    POTLOK:  cpu time    0.0683: real time    0.0707
    SETDIJ:  cpu time    0.0126: real time    0.0176
     EDDAV:  cpu time    2.2000: real time    2.2069
       DOS:  cpu time    0.0005: real time    0.0005
    --------------------------------------------
      LOOP:  cpu time    2.2935: real time    2.3239

 eigenvalue-minimisations  :   752
 total energy-change (2. order) : 0.4479689E+04  (-0.2447672E+05)
 number of electron     582.0000000 magnetization 
 augmentation part      582.0000000 magnetization 

 Free energy of the ion-electron system (eV)
  ---------------------------------------------------
  alpha Z        PSCENC =       476.21782353
  Ewald energy   TEWEN  =     -2319.53646536
  -Hartree energ DENC   =    -28825.62368293
  -exchange      EXHF   =         0.00000000
  -V(xc)+E(xc)   XCENC  =      1691.82311674
  PAW double counting   =     28217.01960844   -27699.40053531
  entropy T*S    EENTRO =        -0.14366457
  eigenvalues    EBANDS =     -2029.01927219
  atomic energy  EATOM  =     34968.35250874
  Solvation  Ediel_sol  =         0.00000000
  ---------------------------------------------------
  free energy    TOTEN  =      4479.68943709 eV

  energy without entropy =     4479.83310166  energy(sigma->0) =     4479.76126937


--------------------------------------------------------------------------------------------------------




----------------------------------------- Iteration    1(   2)  ---------------------------------------


     EDDAV:  cpu time    2.5807: real time    2.5882
       DOS:  cpu time    0.0005: real time    0.0005
    --------------------------------------------
      LOOP:  cpu time    2.5862: real time    2.5950

 eigenvalue-minimisations  :   872
 total energy-change (2. order) :-0.4885607E+04  (-0.4776436E+04)
 number of electron     582.0000000 magnetization 
 augmentation part      582.0000000 magnetization 

 Free energy of the ion-electron system (eV)
  ---------------------------------------------------
  alpha Z        PSCENC =       476.21782353
  Ewald energy   TEWEN  =     -2319.53646536
  -Hartree energ DENC   =    -28825.62368293
  -exchange      EXHF   =         0.00000000
  -V(xc)+E(xc)   XCENC  =      1691.82311674
  PAW double counting   =     28217.01960844   -27699.40053531
  entropy T*S    EENTRO =        -0.00000000
  eigenvalues    EBANDS =     -6914.76998383
  atomic energy  EATOM  =     34968.35250874
  Solvation  Ediel_sol  =         0.00000000
  ---------------------------------------------------
  free energy    TOTEN  =      -405.91760998 eV

  energy without entropy =     -405.91760998  energy(sigma->0) =     -405.91760998


--------------------------------------------------------------------------------------------------------




----------------------------------------- Iteration    1(   3)  ---------------------------------------


     EDDAV:  cpu time    2.2665: real time    2.2740
       DOS:  cpu time    0.0003: real time    0.0003
    --------------------------------------------
      LOOP:  cpu time    2.2708: real time    2.2798

 eigenvalue-minimisations  :   816
 total energy-change (2. order) :-0.5669055E+03  (-0.5647438E+03)
 number of electron     582.0000000 magnetization 
 augmentation part      582.0000000 magnetization 

 Free energy of the ion-electron system (eV)
  ---------------------------------------------------
  alpha Z        PSCENC =       476.21782353
  Ewald energy   TEWEN  =     -2319.53646536
  -Hartree energ DENC   =    -28825.62368293
  -exchange      EXHF   =         0.00000000
  -V(xc)+E(xc)   XCENC  =      1691.82311674
  PAW double counting   =     28217.01960844   -27699.40053531
  entropy T*S    EENTRO =        -0.00000000
  eigenvalues    EBANDS =     -7481.67552630
  atomic energy  EATOM  =     34968.35250874
  Solvation  Ediel_sol  =         0.00000000
  ---------------------------------------------------
  free energy    TOTEN  =      -972.82315245 eV

  energy without entropy =     -972.82315245  energy(sigma->0) =     -972.82315245


--------------------------------------------------------------------------------------------------------




----------------------------------------- Iteration    1(   4)  ---------------------------------------


     EDDAV:  cpu time    2.2367: real time    2.2431
       DOS:  cpu time    0.0003: real time    0.0003
    --------------------------------------------
      LOOP:  cpu time    2.2403: real time    2.2480

 eigenvalue-minimisations  :   832
 total energy-change (2. order) :-0.1334076E+02  (-0.1329996E+02)
 number of electron     582.0000000 magnetization 
 augmentation part      582.0000000 magnetization 

 Free energy of the ion-electron system (eV)
  ---------------------------------------------------
  alpha Z        PSCENC =       476.21782353
  Ewald energy   TEWEN  =     -2319.53646536
  -Hartree energ DENC   =    -28825.62368293
  -exchange      EXHF   =         0.00000000
  -V(xc)+E(xc)   XCENC  =      1691.82311674
  PAW double counting   =     28217.01960844   -27699.40053531
  entropy T*S    EENTRO =        -0.00000000
  eigenvalues    EBANDS =     -7495.01628749
  atomic energy  EATOM  =     34968.35250874
  Solvation  Ediel_sol  =         0.00000000
  ---------------------------------------------------
  free energy    TOTEN  =      -986.16391364 eV

  energy without entropy =     -986.16391364  energy(sigma->0) =     -986.16391364


--------------------------------------------------------------------------------------------------------




----------------------------------------- Iteration    1(   5)  ---------------------------------------


     EDDAV:  cpu time    2.2350: real time    2.2423
       DOS:  cpu time    0.0003: real time    0.0003
    CHARGE:  cpu time    0.0631: real time    0.0633
    MIXING:  cpu time    0.0042: real time    0.0044
    --------------------------------------------
      LOOP:  cpu time    2.3055: real time    2.3154

 eigenvalue-minimisations  :   832
 total energy-change (2. order) :-0.3962858E+00  (-0.3958054E+00)
 number of electron     582.0000097 magnetization 
 augmentation part       53.4938612 magnetization 

 Broyden mixing:
  rms(total) = 0.85817E+01    rms(broyden)= 0.85771E+01
  rms(prec ) = 0.93558E+01
  weight for this iteration     100.00

 Free energy of the ion-electron system (eV)
  ---------------------------------------------------
  alpha Z        PSCENC =       476.21782353
  Ewald energy   TEWEN  =     -2319.53646536
  -Hartree energ DENC   =    -28825.62368293
  -exchange      EXHF   =         0.00000000
  -V(xc)+E(xc)   XCENC  =      1691.82311674
  PAW double counting   =     28217.01960844   -27699.40053531
  entropy T*S    EENTRO =        -0.00000000
  eigenvalues    EBANDS =     -7495.41257326
  atomic energy  EATOM  =     34968.35250874
  Solvation  Ediel_sol  =         0.00000000
  ---------------------------------------------------
  free energy    TOTEN  =      -986.56019940 eV

  energy without entropy =     -986.56019940  energy(sigma->0) =     -986.56019940


--------------------------------------------------------------------------------------------------------




----------------------------------------- Iteration    1(   6)  ---------------------------------------


    POTLOK:  cpu time    0.0496: real time    0.0497
    SETDIJ:  cpu time    0.0073: real time    0.0073
     EDDAV:  cpu time    2.1669: real time    2.1729
       DOS:  cpu time    0.0019: real time    0.0019
    CHARGE:  cpu time    0.0587: real time    0.0589
    MIXING:  cpu time    0.0023: real time    0.0024
    --------------------------------------------
      LOOP:  cpu time    2.2895: real time    2.2975

 eigenvalue-minimisations  :   800
 total energy-change (2. order) : 0.1168539E+03  (-0.5081666E+02)
 number of electron     582.0000085 magnetization 
 augmentation part       43.3935742 magnetization 

 Broyden mixing:
  rms(total) = 0.39878E+01    rms(broyden)= 0.39858E+01
  rms(prec ) = 0.40735E+01
  weight for this iteration     100.00

 eigenvalues of (default mixing * dielectric matrix)
  average eigenvalue GAMMA=   1.1555
  1.1555

 Free energy of the ion-electron system (eV)
  ---------------------------------------------------
  alpha Z        PSCENC =       476.21782353
  Ewald energy   TEWEN  =     -2319.53646536
  -Hartree energ DENC   =    -30201.56840304
  -exchange      EXHF   =         0.00000000
  -V(xc)+E(xc)   XCENC  =      1779.09217000
  PAW double counting   =     49628.00700078   -49134.77603794
  entropy T*S    EENTRO =        -0.00000000
  eigenvalues    EBANDS =     -6065.49485687
  atomic energy  EATOM  =     34968.35250874
  Solvation  Ediel_sol  =         0.00000000
  ---------------------------------------------------
  free energy    TOTEN  =      -869.70626016 eV

  energy without entropy =     -869.70626016  energy(sigma->0) =     -869.70626016


--------------------------------------------------------------------------------------------------------




----------------------------------------- Iteration    1(   7)  ---------------------------------------


    POTLOK:  cpu time    0.0459: real time    0.0460
    SETDIJ:  cpu time    0.0050: real time    0.0050
     EDDAV:  cpu time    2.5140: real time    2.5213
       DOS:  cpu time    0.0003: real time    0.0003
    CHARGE:  cpu time    0.0636: real time    0.0637
    MIXING:  cpu time    0.0014: real time    0.0014
    --------------------------------------------
      LOOP:  cpu time    2.6325: real time    2.6417

 eigenvalue-minimisations  :   920
 total energy-change (2. order) : 0.6452412E+00  (-0.1718805E+01)
 number of electron     582.0000086 magnetization 
 augmentation part       42.5388644 magnetization 

 Broyden mixing:
  rms(total) = 0.15067E+01    rms(broyden)= 0.15065E+01
  rms(prec ) = 0.15778E+01
  weight for this iteration     100.00

 eigenvalues of (default mixing * dielectric matrix)
  average eigenvalue GAMMA=   1.2741
  1.2741  1.2741

 Free energy of the ion-electron system (eV)
  ---------------------------------------------------
  alpha Z        PSCENC =       476.21782353
  Ewald energy   TEWEN  =     -2319.53646536
  -Hartree energ DENC   =    -30425.62150853
  -exchange      EXHF   =         0.00000000
  -V(xc)+E(xc)   XCENC  =      1791.62439021
  PAW double counting   =     72523.41920522   -72030.45571505
  entropy T*S    EENTRO =        -0.00000000
  eigenvalues    EBANDS =     -5853.06125775
  atomic energy  EATOM  =     34968.35250874
  Solvation  Ediel_sol  =         0.00000000
  ---------------------------------------------------
  free energy    TOTEN  =      -869.06101898 eV

  energy without entropy =     -869.06101898  energy(sigma->0) =     -869.06101898


--------------------------------------------------------------------------------------------------------




----------------------------------------- Iteration    1(   8)  ---------------------------------------


    POTLOK:  cpu time    0.0480: real time    0.0482
    SETDIJ:  cpu time    0.0051: real time    0.0052
     EDDAV:  cpu time    2.1763: real time    2.1825
       DOS:  cpu time    0.0003: real time    0.0003
    CHARGE:  cpu time    0.0575: real time    0.0576
    MIXING:  cpu time    0.0015: real time    0.0015
    --------------------------------------------
      LOOP:  cpu time    2.2911: real time    2.2996

 eigenvalue-minimisations  :   816
 total energy-change (2. order) : 0.5370628E+00  (-0.1303820E+00)
 number of electron     582.0000086 magnetization 
 augmentation part       42.8018191 magnetization 

 Broyden mixing:
  rms(total) = 0.61130E+00    rms(broyden)= 0.61129E+00
  rms(prec ) = 0.65811E+00
  weight for this iteration     100.00

 eigenvalues of (default mixing * dielectric matrix)
  average eigenvalue GAMMA=   1.5320
  1.0834  1.0834  2.4293

 Free energy of the ion-electron system (eV)
  ---------------------------------------------------
  alpha Z        PSCENC =       476.21782353
  Ewald energy   TEWEN  =     -2319.53646536
  -Hartree energ DENC   =    -30516.71930863
  -exchange      EXHF   =         0.00000000
  -V(xc)+E(xc)   XCENC  =      1795.55979188
  PAW double counting   =     83816.42442067   -83323.68540225
  entropy T*S    EENTRO =        -0.00000000
  eigenvalues    EBANDS =     -5765.13732480
  atomic energy  EATOM  =     34968.35250874
  Solvation  Ediel_sol  =         0.00000000
  ---------------------------------------------------
  free energy    TOTEN  =      -868.52395622 eV

  energy without entropy =     -868.52395622  energy(sigma->0) =     -868.52395622


--------------------------------------------------------------------------------------------------------




----------------------------------------- Iteration    1(   9)  ---------------------------------------


    POTLOK:  cpu time    0.0461: real time    0.0461
    SETDIJ:  cpu time    0.0049: real time    0.0049
     EDDAV:  cpu time    2.2229: real time    2.2297
       DOS:  cpu time    0.0003: real time    0.0003
    CHARGE:  cpu time    0.0590: real time    0.0591
    MIXING:  cpu time    0.0015: real time    0.0015
    --------------------------------------------
      LOOP:  cpu time    2.3367: real time    2.3464

 eigenvalue-minimisations  :   832
 total energy-change (2. order) : 0.1702388E+00  (-0.4596857E-01)
 number of electron     582.0000085 magnetization 
 augmentation part       42.7011301 magnetization 

 Broyden mixing:
  rms(total) = 0.10063E+00    rms(broyden)= 0.10060E+00
  rms(prec ) = 0.13158E+00
  weight for this iteration     100.00

 eigenvalues of (default mixing * dielectric matrix)
  average eigenvalue GAMMA=   1.4965
  2.5003  1.0330  1.0330  1.4194

 Free energy of the ion-electron system (eV)
  ---------------------------------------------------
  alpha Z        PSCENC =       476.21782353
  Ewald energy   TEWEN  =     -2319.53646536
  -Hartree energ DENC   =    -30644.78024346
  -exchange      EXHF   =         0.00000000
  -V(xc)+E(xc)   XCENC  =      1801.99203531
  PAW double counting   =     92597.45395553   -92105.51899139
  entropy T*S    EENTRO =        -0.00000000
  eigenvalues    EBANDS =     -5642.53434031
  atomic energy  EATOM  =     34968.35250874
  Solvation  Ediel_sol  =         0.00000000
  ---------------------------------------------------
  free energy    TOTEN  =      -868.35371740 eV

  energy without entropy =     -868.35371740  energy(sigma->0) =     -868.35371740


--------------------------------------------------------------------------------------------------------




----------------------------------------- Iteration    1(  10)  ---------------------------------------


    POTLOK:  cpu time    0.0459: real time    0.0464
    SETDIJ:  cpu time    0.0048: real time    0.0048
     EDDAV:  cpu time    2.3130: real time    2.3200
       DOS:  cpu time    0.0003: real time    0.0003
    CHARGE:  cpu time    0.0578: real time    0.0579
    MIXING:  cpu time    0.0016: real time    0.0016
    --------------------------------------------
      LOOP:  cpu time    2.4256: real time    2.4364

 eigenvalue-minimisations  :   808
 total energy-change (2. order) : 0.4332860E-03  (-0.1162309E-01)
 number of electron     582.0000086 magnetization 
 augmentation part       42.6406723 magnetization 

 Broyden mixing:
  rms(total) = 0.73998E-01    rms(broyden)= 0.73969E-01
  rms(prec ) = 0.94540E-01
  weight for this iteration     100.00

 eigenvalues of (default mixing * dielectric matrix)
  average eigenvalue GAMMA=   1.3745
  2.5269  1.5557  0.9470  0.9470  0.8961

 Free energy of the ion-electron system (eV)
  ---------------------------------------------------
  alpha Z        PSCENC =       476.21782353
  Ewald energy   TEWEN  =     -2319.53646536
  -Hartree energ DENC   =    -30674.86402458
  -exchange      EXHF   =         0.00000000
  -V(xc)+E(xc)   XCENC  =      1802.99572175
  PAW double counting   =     92315.45877494   -91823.47464863
  entropy T*S    EENTRO =        -0.00000000
  eigenvalues    EBANDS =     -5613.50297451
  atomic energy  EATOM  =     34968.35250874
  Solvation  Ediel_sol  =         0.00000000
  ---------------------------------------------------
  free energy    TOTEN  =      -868.35328412 eV

  energy without entropy =     -868.35328412  energy(sigma->0) =     -868.35328412


--------------------------------------------------------------------------------------------------------




----------------------------------------- Iteration    1(  11)  ---------------------------------------


    POTLOK:  cpu time    0.0442: real time    0.0443
    SETDIJ:  cpu time    0.0060: real time    0.0060
     EDDAV:  cpu time    2.1051: real time    2.1114
       DOS:  cpu time    0.0003: real time    0.0003
    CHARGE:  cpu time    0.0572: real time    0.0573
    MIXING:  cpu time    0.0015: real time    0.0015
    --------------------------------------------
      LOOP:  cpu time    2.2164: real time    2.2251

 eigenvalue-minimisations  :   784
 total energy-change (2. order) : 0.3163045E-03  (-0.1895015E-02)
 number of electron     582.0000086 magnetization 
 augmentation part       42.6652712 magnetization 

 Broyden mixing:
  rms(total) = 0.37357E-01    rms(broyden)= 0.37352E-01
  rms(prec ) = 0.58362E-01
  weight for this iteration     100.00

 eigenvalues of (default mixing * dielectric matrix)
  average eigenvalue GAMMA=   1.4666
  2.5193  2.1008  1.0532  1.0532  1.0366  1.0366

 Free energy of the ion-electron system (eV)
  ---------------------------------------------------
  alpha Z        PSCENC =       476.21782353
  Ewald energy   TEWEN  =     -2319.53646536
  -Hartree energ DENC   =    -30684.78737590
  -exchange      EXHF   =         0.00000000
  -V(xc)+E(xc)   XCENC  =      1803.09883928
  PAW double counting   =     91976.35382355   -91484.23878582
  entropy T*S    EENTRO =        -0.00000000
  eigenvalues    EBANDS =     -5603.81333584
  atomic energy  EATOM  =     34968.35250874
  Solvation  Ediel_sol  =         0.00000000
  ---------------------------------------------------
  free energy    TOTEN  =      -868.35296781 eV

  energy without entropy =     -868.35296781  energy(sigma->0) =     -868.35296781


--------------------------------------------------------------------------------------------------------




----------------------------------------- Iteration    1(  12)  ---------------------------------------


    POTLOK:  cpu time    0.0455: real time    0.0457
    SETDIJ:  cpu time    0.0050: real time    0.0050
     EDDAV:  cpu time    2.1328: real time    2.1391
       DOS:  cpu time    0.0003: real time    0.0003
    CHARGE:  cpu time    0.0606: real time    0.0608
    MIXING:  cpu time    0.0018: real time    0.0018
    --------------------------------------------
      LOOP:  cpu time    2.2482: real time    2.2588

 eigenvalue-minimisations  :   792
 total energy-change (2. order) :-0.5550594E-02  (-0.8270413E-03)
 number of electron     582.0000086 magnetization 
 augmentation part       42.6604895 magnetization 

 Broyden mixing:
  rms(total) = 0.14460E-01    rms(broyden)= 0.14448E-01
  rms(prec ) = 0.31221E-01
  weight for this iteration     100.00

 eigenvalues of (default mixing * dielectric matrix)
  average eigenvalue GAMMA=   1.5550
  3.0916  2.5248  1.1845  1.1845  0.9834  0.9581  0.9581

 Free energy of the ion-electron system (eV)
  ---------------------------------------------------
  alpha Z        PSCENC =       476.21782353
  Ewald energy   TEWEN  =     -2319.53646536
  -Hartree energ DENC   =    -30702.57658379
  -exchange      EXHF   =         0.00000000
  -V(xc)+E(xc)   XCENC  =      1803.43586057
  PAW double counting   =     91547.99853443   -91055.78633927
  entropy T*S    EENTRO =        -0.00000000
  eigenvalues    EBANDS =     -5586.46385726
  atomic energy  EATOM  =     34968.35250874
  Solvation  Ediel_sol  =         0.00000000
  ---------------------------------------------------
  free energy    TOTEN  =      -868.35851841 eV

  energy without entropy =     -868.35851841  energy(sigma->0) =     -868.35851841


--------------------------------------------------------------------------------------------------------




----------------------------------------- Iteration    1(  13)  ---------------------------------------


    POTLOK:  cpu time    0.0442: real time    0.0444
    SETDIJ:  cpu time    0.0050: real time    0.0050
     EDDAV:  cpu time    2.1537: real time    2.1605
       DOS:  cpu time    0.0003: real time    0.0003
    CHARGE:  cpu time    0.0528: real time    0.0530
    MIXING:  cpu time    0.0018: real time    0.0018
    --------------------------------------------
      LOOP:  cpu time    2.2603: real time    2.2696

 eigenvalue-minimisations  :   808
 total energy-change (2. order) :-0.1168485E-01  (-0.6021394E-03)
 number of electron     582.0000086 magnetization 
 augmentation part       42.6686104 magnetization 

 Broyden mixing:
  rms(total) = 0.22115E-01    rms(broyden)= 0.22110E-01
  rms(prec ) = 0.26283E-01
  weight for this iteration     100.00

 eigenvalues of (default mixing * dielectric matrix)
  average eigenvalue GAMMA=   1.5886
  3.1699  2.5450  1.7638  0.9348  1.0604  1.0604  1.0873  1.0873

 Free energy of the ion-electron system (eV)
  ---------------------------------------------------
  alpha Z        PSCENC =       476.21782353
  Ewald energy   TEWEN  =     -2319.53646536
  -Hartree energ DENC   =    -30716.21329596
  -exchange      EXHF   =         0.00000000
  -V(xc)+E(xc)   XCENC  =      1803.58687962
  PAW double counting   =     91343.00229714   -90850.69470906
  entropy T*S    EENTRO =        -0.00000000
  eigenvalues    EBANDS =     -5573.08524190
  atomic energy  EATOM  =     34968.35250874
  Solvation  Ediel_sol  =         0.00000000
  ---------------------------------------------------
  free energy    TOTEN  =      -868.37020326 eV

  energy without entropy =     -868.37020326  energy(sigma->0) =     -868.37020326


--------------------------------------------------------------------------------------------------------




----------------------------------------- Iteration    1(  14)  ---------------------------------------


    POTLOK:  cpu time    0.0465: real time    0.0467
    SETDIJ:  cpu time    0.0048: real time    0.0049
     EDDAV:  cpu time    2.1488: real time    2.1552
       DOS:  cpu time    0.0003: real time    0.0003
    CHARGE:  cpu time    0.0576: real time    0.0578
    MIXING:  cpu time    0.0019: real time    0.0019
    --------------------------------------------
      LOOP:  cpu time    2.2623: real time    2.2745

 eigenvalue-minimisations  :   800
 total energy-change (2. order) :-0.8750124E-02  (-0.5330741E-03)
 number of electron     582.0000086 magnetization 
 augmentation part       42.6643448 magnetization 

 Broyden mixing:
  rms(total) = 0.10010E-01    rms(broyden)= 0.99998E-02
  rms(prec ) = 0.12438E-01
  weight for this iteration     100.00

 eigenvalues of (default mixing * dielectric matrix)
  average eigenvalue GAMMA=   1.6159
  3.5541  2.5689  2.0186  1.0997  1.0997  0.9314  1.0973  1.0868  1.0868

 Free energy of the ion-electron system (eV)
  ---------------------------------------------------
  alpha Z        PSCENC =       476.21782353
  Ewald energy   TEWEN  =     -2319.53646536
  -Hartree energ DENC   =    -30722.14024037
  -exchange      EXHF   =         0.00000000
  -V(xc)+E(xc)   XCENC  =      1803.64359864
  PAW double counting   =     91556.46004348   -91064.17575826
  entropy T*S    EENTRO =        -0.00000000
  eigenvalues    EBANDS =     -5567.20046378
  atomic energy  EATOM  =     34968.35250874
  Solvation  Ediel_sol  =         0.00000000
  ---------------------------------------------------
  free energy    TOTEN  =      -868.37895338 eV

  energy without entropy =     -868.37895338  energy(sigma->0) =     -868.37895338


--------------------------------------------------------------------------------------------------------




----------------------------------------- Iteration    1(  15)  ---------------------------------------


    POTLOK:  cpu time    0.0438: real time    0.0439
    SETDIJ:  cpu time    0.0048: real time    0.0048
     EDDAV:  cpu time    2.3323: real time    2.3392
       DOS:  cpu time    0.0003: real time    0.0003
    CHARGE:  cpu time    0.0600: real time    0.0603
    MIXING:  cpu time    0.0020: real time    0.0020
    --------------------------------------------
      LOOP:  cpu time    2.4461: real time    2.4555

 eigenvalue-minimisations  :   832
 total energy-change (2. order) :-0.2742165E-02  (-0.1286951E-03)
 number of electron     582.0000086 magnetization 
 augmentation part       42.6590027 magnetization 

 Broyden mixing:
  rms(total) = 0.61368E-02    rms(broyden)= 0.61330E-02
  rms(prec ) = 0.73708E-02
  weight for this iteration     100.00

 eigenvalues of (default mixing * dielectric matrix)
  average eigenvalue GAMMA=   1.6900
  4.4235  2.8829  2.4629  1.0564  1.0564  1.1217  1.1217  1.0319  0.8715  0.8715

 Free energy of the ion-electron system (eV)
  ---------------------------------------------------
  alpha Z        PSCENC =       476.21782353
  Ewald energy   TEWEN  =     -2319.53646536
  -Hartree energ DENC   =    -30725.11850837
  -exchange      EXHF   =         0.00000000
  -V(xc)+E(xc)   XCENC  =      1803.70156057
  PAW double counting   =     91611.31025244   -91119.03584146
  entropy T*S    EENTRO =        -0.00000000
  eigenvalues    EBANDS =     -5564.27302563
  atomic energy  EATOM  =     34968.35250874
  Solvation  Ediel_sol  =         0.00000000
  ---------------------------------------------------
  free energy    TOTEN  =      -868.38169554 eV

  energy without entropy =     -868.38169554  energy(sigma->0) =     -868.38169554


--------------------------------------------------------------------------------------------------------




----------------------------------------- Iteration    1(  16)  ---------------------------------------


    POTLOK:  cpu time    0.2402: real time    0.2406
    SETDIJ:  cpu time    0.0049: real time    0.0049
     EDDAV:  cpu time    2.1371: real time    2.1430
       DOS:  cpu time    0.0003: real time    0.0003
    CHARGE:  cpu time    0.0565: real time    0.0567
    MIXING:  cpu time    0.0025: real time    0.0025
    --------------------------------------------
      LOOP:  cpu time    2.4438: real time    2.4561

 eigenvalue-minimisations  :   800
 total energy-change (2. order) :-0.1357744E-02  (-0.2479365E-04)
 number of electron     582.0000086 magnetization 
 augmentation part       42.6591207 magnetization 

 Broyden mixing:
  rms(total) = 0.56089E-02    rms(broyden)= 0.56084E-02
  rms(prec ) = 0.60941E-02
  weight for this iteration     100.00

 eigenvalues of (default mixing * dielectric matrix)
  average eigenvalue GAMMA=   1.7074
  5.1537  2.7554  2.4143  1.1238  1.1238  0.9836  0.9836  1.1660  1.1660  1.0602
  0.8506

 Free energy of the ion-electron system (eV)
  ---------------------------------------------------
  alpha Z        PSCENC =       476.21782353
  Ewald energy   TEWEN  =     -2319.53646536
  -Hartree energ DENC   =    -30726.34948033
  -exchange      EXHF   =         0.00000000
  -V(xc)+E(xc)   XCENC  =      1803.70411269
  PAW double counting   =     91656.53830407   -91164.26870622
  entropy T*S    EENTRO =        -0.00000000
  eigenvalues    EBANDS =     -5563.04115041
  atomic energy  EATOM  =     34968.35250874
  Solvation  Ediel_sol  =         0.00000000
  ---------------------------------------------------
  free energy    TOTEN  =      -868.38305329 eV

  energy without entropy =     -868.38305329  energy(sigma->0) =     -868.38305329


--------------------------------------------------------------------------------------------------------




----------------------------------------- Iteration    1(  17)  ---------------------------------------


    POTLOK:  cpu time    0.0466: real time    0.0468
    SETDIJ:  cpu time    0.0047: real time    0.0047
     EDDAV:  cpu time    2.1579: real time    2.1642
       DOS:  cpu time    0.0003: real time    0.0003
    CHARGE:  cpu time    0.0558: real time    0.0559
    MIXING:  cpu time    0.0023: real time    0.0023
    --------------------------------------------
      LOOP:  cpu time    2.2697: real time    2.2825

[...]
   0.228E+03 0.418E+01 0.281E+01   -.249E+03 -.445E+01 -.236E+01   0.206E+02 0.268E+00 -.454E+00   0.115E-02 0.140E-02 0.116E-02
   -.120E+03 -.195E+03 -.555E+01   0.131E+03 0.213E+03 0.590E+01   -.104E+02 -.170E+02 -.340E+00   0.129E-02 0.149E-02 -.156E-02
   -.351E+01 -.930E+02 -.170E+03   0.442E+01 0.107E+03 0.183E+03   -.931E+00 -.145E+02 -.135E+02   -.448E-03 0.198E-03 -.569E-03
   -.751E+02 0.403E+02 -.148E+03   0.875E+02 -.474E+02 0.159E+03   -.124E+02 0.708E+01 -.109E+02   -.142E-03 0.158E-02 -.187E-02
   -.103E+01 -.127E+03 -.204E+03   0.113E+01 0.133E+03 0.223E+03   -.114E+00 -.596E+01 -.182E+02   0.264E-02 -.128E-02 -.105E-02
   0.419E+01 -.776E+02 -.141E+03   -.455E+01 0.934E+02 0.152E+03   0.348E+00 -.158E+02 -.104E+02   -.243E-02 -.463E-03 0.268E-02
   0.712E+00 -.917E+02 -.155E+03   -.391E+00 0.108E+03 0.166E+03   -.341E+00 -.161E+02 -.108E+02   0.191E-02 0.588E-03 0.178E-03
   0.720E+02 0.422E+02 -.161E+03   -.849E+02 -.500E+02 0.173E+03   0.129E+02 0.778E+01 -.129E+02   0.701E-04 0.187E-03 0.791E-03
   0.117E+03 -.208E+03 -.363E+01   -.125E+03 0.224E+03 0.402E+01   0.877E+01 -.159E+02 -.380E+00   0.139E-02 -.111E-02 -.265E-02
   0.630E+02 -.488E+02 0.143E+03   -.758E+02 0.567E+02 -.154E+03   0.128E+02 -.794E+01 0.112E+02   0.105E-02 0.609E-03 -.187E-02
   -.653E+02 -.635E+02 0.143E+03   0.791E+02 0.721E+02 -.157E+03   -.138E+02 -.864E+01 0.139E+02   -.102E-02 0.371E-03 -.129E-02
   0.453E+02 -.821E+02 0.119E+03   -.546E+02 0.983E+02 -.117E+03   0.926E+01 -.162E+02 -.205E+01   0.184E-02 0.876E-03 -.115E-03
   0.791E+02 0.289E+02 -.102E+03   -.928E+02 -.337E+02 0.103E+03   0.137E+02 0.488E+01 -.633E+00   0.769E-03 0.265E-03 -.911E-03
   -.254E+01 0.974E+02 0.177E+03   0.306E+01 -.112E+03 -.193E+03   -.529E+00 0.144E+02 0.156E+02   -.257E-02 0.106E-02 0.430E-03
   -.886E+02 -.438E+02 0.158E+03   0.102E+03 0.511E+02 -.170E+03   -.138E+02 -.723E+01 0.113E+02   0.288E-03 0.652E-03 0.115E-02
   -.646E+02 -.345E+02 0.140E+03   0.769E+02 0.415E+02 -.151E+03   -.122E+02 -.699E+01 0.101E+02   -.183E-02 -.439E-03 0.192E-02
   0.150E+02 -.198E+03 0.488E+02   -.178E+02 0.216E+03 -.476E+02   0.284E+01 -.176E+02 -.121E+01   -.528E-04 -.127E-02 0.261E-03
   0.677E+02 -.370E+02 0.148E+03   -.803E+02 0.445E+02 -.159E+03   0.126E+02 -.750E+01 0.109E+02   -.179E-02 -.922E-03 0.273E-03
   -.309E+02 0.205E+03 -.995E+02   0.357E+02 -.223E+03 0.108E+03   -.479E+01 0.174E+02 -.893E+01   -.448E-03 -.370E-03 -.157E-02
   0.935E+02 0.196E+03 -.956E+01   -.104E+03 -.213E+03 0.898E+01   0.996E+01 0.172E+02 0.591E+00   -.209E-03 0.716E-03 -.176E-02
   0.325E+01 0.789E+02 0.150E+03   -.321E+01 -.937E+02 -.163E+03   -.354E-01 0.148E+02 0.125E+02   0.927E-03 -.190E-02 -.185E-02
   0.246E+03 -.283E+01 -.875E+01   -.268E+03 0.229E+01 0.964E+01   0.219E+02 0.552E+00 -.901E+00   0.188E-04 0.219E-03 0.100E-02
   0.955E+01 -.650E+02 -.541E+02   -.998E+01 0.666E+02 0.521E+02   0.427E+00 -.158E+01 0.205E+01   -.108E-03 0.202E-03 -.150E-02
   -.411E+01 0.638E+02 0.361E+02   0.488E+01 -.634E+02 -.353E+02   -.755E+00 -.452E+00 -.763E+00   -.321E-03 0.826E-03 -.663E-03
   -.582E+02 -.368E+02 0.438E+02   0.582E+02 0.366E+02 -.432E+02   -.496E-02 0.167E+00 -.601E+00   -.649E-03 -.224E-03 0.769E-04
   0.593E+02 0.414E+02 -.490E+02   -.589E+02 -.407E+02 0.489E+02   -.437E+00 -.755E+00 0.142E+00   0.368E-03 -.106E-02 -.655E-03
   -.111E+02 0.650E+02 0.484E+02   0.113E+02 -.651E+02 -.482E+02   -.261E+00 0.179E-01 -.140E+00   0.113E-02 0.597E-03 0.137E-02
   -.597E+02 0.246E+02 -.478E+02   0.585E+02 -.266E+02 0.462E+02   0.124E+01 0.208E+01 0.163E+01   0.126E-02 -.401E-03 -.119E-02
   -.669E+02 0.268E+02 -.439E+02   0.667E+02 -.267E+02 0.441E+02   0.130E+00 -.554E-01 -.214E+00   -.609E-03 0.100E-02 -.295E-03
   -.121E+02 -.678E+02 -.475E+02   0.114E+02 0.673E+02 0.467E+02   0.671E+00 0.472E+00 0.792E+00   0.337E-03 0.833E-03 -.137E-02
   -.605E+02 0.391E+02 -.437E+02   0.602E+02 -.387E+02 0.435E+02   0.298E+00 -.392E+00 0.223E+00   0.196E-03 0.304E-03 -.378E-03
   0.677E+01 -.687E+02 -.474E+02   -.662E+01 0.684E+02 0.471E+02   -.158E+00 0.313E+00 0.338E+00   0.113E-02 -.275E-03 -.628E-03
   0.594E+02 0.269E+02 -.509E+02   -.591E+02 -.269E+02 0.498E+02   -.318E+00 0.630E-01 0.111E+01   0.418E-03 -.207E-03 -.386E-03
   -.556E+02 0.300E+02 -.390E+02   0.558E+02 -.307E+02 0.394E+02   -.285E+00 0.653E+00 -.432E+00   -.156E-02 -.150E-02 0.189E-02
   -.725E+01 -.700E+02 -.439E+02   0.702E+01 0.696E+02 0.440E+02   0.221E+00 0.369E+00 -.443E-01   0.818E-03 -.107E-02 -.124E-02
   -.632E+02 0.404E+02 -.403E+02   0.626E+02 -.402E+02 0.400E+02   0.582E+00 -.225E+00 0.240E+00   -.143E-02 -.325E-03 0.173E-02
   0.612E+02 -.264E+02 0.481E+02   -.598E+02 0.263E+02 -.478E+02   -.148E+01 0.114E+00 -.307E+00   0.344E-03 0.146E-02 0.539E-03
   -.435E+01 -.741E+02 -.308E+02   0.404E+01 0.729E+02 0.309E+02   0.315E+00 0.123E+01 -.106E+00   -.161E-02 0.292E-03 0.108E-02
   0.493E+02 0.416E+02 -.469E+02   -.484E+02 -.410E+02 0.463E+02   -.893E+00 -.598E+00 0.640E+00   0.779E-03 0.106E-02 -.435E-03
   0.186E+01 0.689E+02 0.615E+02   -.118E+01 -.649E+02 -.606E+02   -.706E+00 -.395E+01 -.914E+00   0.198E-02 -.258E-03 0.614E-03
   -.680E+02 -.258E+02 0.428E+02   0.675E+02 0.255E+02 -.427E+02   0.543E+00 0.208E+00 -.302E-01   -.162E-02 0.920E-03 0.275E-03
   0.637E+02 0.187E+02 -.574E+02   -.635E+02 -.192E+02 0.571E+02   -.211E+00 0.543E+00 0.313E+00   -.596E-04 -.476E-04 0.118E-03
   0.837E+01 -.597E+02 -.303E+02   -.109E+02 0.616E+02 0.314E+02   0.254E+01 -.188E+01 -.113E+01   -.143E-02 -.401E-04 0.107E-02
   0.670E+02 0.354E+02 -.429E+02   -.661E+02 -.347E+02 0.426E+02   -.923E+00 -.726E+00 0.292E+00   0.273E-03 -.607E-03 0.143E-02
   0.418E+02 -.389E+02 0.502E+02   -.414E+02 0.387E+02 -.500E+02   -.401E+00 0.267E+00 -.146E+00   0.810E-03 0.161E-02 0.570E-03
   -.556E+02 -.405E+02 0.453E+02   0.559E+02 0.404E+02 -.446E+02   -.307E+00 0.905E-01 -.732E+00   0.547E-03 0.492E-03 -.955E-03
   0.655E+02 -.204E+02 0.525E+02   -.651E+02 0.206E+02 -.510E+02   -.361E+00 -.161E+00 -.152E+01   -.815E-03 0.713E-04 0.926E-03
   -.159E+02 0.434E+02 -.569E+02   0.157E+02 -.427E+02 0.592E+02   0.231E+00 -.655E+00 -.222E+01   -.404E-03 0.169E-03 -.130E-02
   0.662E+02 -.300E+02 0.430E+02   -.654E+02 0.304E+02 -.423E+02   -.871E+00 -.401E+00 -.711E+00   0.224E-03 -.559E-03 -.137E-02
   0.195E+01 0.624E+02 0.209E+02   -.197E+01 -.611E+02 -.194E+02   0.303E-01 -.132E+01 -.154E+01   -.302E-03 0.266E-03 -.935E-03
   0.492E+01 0.707E+02 0.468E+02   -.490E+01 -.704E+02 -.458E+02   -.850E-02 -.293E+00 -.962E+00   -.104E-02 -.119E-02 0.952E-03
   -.611E+02 -.296E+02 0.429E+02   0.607E+02 0.297E+02 -.421E+02   0.400E+00 -.994E-01 -.768E+00   0.862E-03 0.533E-04 -.115E-02
   0.604E+02 -.418E+02 0.428E+02   -.601E+02 0.413E+02 -.424E+02   -.328E+00 0.436E+00 -.399E+00   0.301E-03 -.215E-03 0.123E-02
   0.639E+02 -.485E+02 0.395E+02   -.635E+02 0.478E+02 -.387E+02   -.398E+00 0.697E+00 -.733E+00   -.254E-03 -.514E-03 -.152E-02
   -.586E+02 -.263E+02 0.471E+02   0.606E+02 0.236E+02 -.478E+02   -.203E+01 0.268E+01 0.768E+00   -.281E-03 -.795E-04 0.920E-03
   -.813E+01 0.727E+02 0.435E+02   0.784E+01 -.721E+02 -.431E+02   0.316E+00 -.596E+00 -.415E+00   -.108E-02 0.179E-03 0.130E-02
   0.667E+02 0.352E+02 -.414E+02   -.661E+02 -.349E+02 0.410E+02   -.629E+00 -.275E+00 0.321E+00   -.906E-03 0.134E-03 0.171E-02
 -----------------------------------------------------------------------------------------------
   -.187E+02 0.498E+01 0.648E+01   0.000E+00 0.661E-12 0.647E-12   0.187E+02 -.502E+01 -.651E+01   -.109E-01 0.638E-02 0.663E-02
 
 
 POSITION                                       TOTAL-FORCE (eV/Angst)
 -----------------------------------------------------------------------------------
      3.08179      7.95373      8.30853         0.026612     -0.008651     -0.011718
      5.44034      7.98374      9.96564         0.002103      0.003180     -0.026511
      5.72077      8.36348      8.98061         0.006056     -0.021117      0.000546
      5.81554      6.96202     10.09807        -0.010387     -0.011081      0.011285
      5.82836      8.63657     10.74904        -0.013354      0.004703      0.005592
     -2.07073      3.97699     12.43732         0.010174      0.001422     -0.012825
     -0.04034      4.97619      7.97827        -0.005131     -0.010020     -0.018151
      6.84654      1.13418      2.98472        -0.004516      0.004519      0.012553
      6.79197      9.00159     12.89572         0.006294      0.007153     -0.004292
      2.44988      6.48513     11.68550         0.004567     -0.009777      0.015393
     -4.36995     10.44716      1.92628         0.000707     -0.023324      0.018877
     -2.51344      6.50297     11.90621         0.000060     -0.001965     -0.000886
      4.25456      2.49311      6.85315        -0.017777     -0.003058     -0.004392
      4.40047     10.46965      2.08730         0.013490      0.004529     -0.011058
     -2.45992      9.34441      7.99066         0.008433      0.000355      0.006701
     11.68437      1.16522      1.87519        -0.016087      0.001401     -0.004314
      2.41776      1.43026     12.86459        -0.002940      0.006087     -0.005600
      8.90886      5.18697      6.73944        -0.009399      0.024307     -0.007956
     -0.02076     10.35423      8.10683        -0.025402     -0.005813     -0.008587
     11.31904      3.73737      2.48201         0.011213      0.009800     -0.015807
      8.83450      0.12087      7.48348         0.012830     -0.001481      0.015366
     -4.43148      7.73758      7.38759         0.003774      0.021399     -0.032066
      2.39775      3.73849      2.46211        -0.003416     -0.007614     -0.012651
      8.95754      7.90565      2.42997         0.008503      0.015473     -0.007766
      2.43390      4.30665      7.41366        -0.005257     -0.013244     -0.001860
      9.25339      0.21844      2.49305         0.029915     -0.004795      0.004060
      2.36040     11.58370     12.50564         0.028210      0.011030      0.017391
     -2.47153      4.16226      7.47665         0.008293     -0.006535      0.008398
      9.22310      2.60585      6.88563         0.006392      0.009610      0.024014
      4.47354      0.20678      2.41315         0.006201     -0.000365      0.000017
      9.37029      5.38502      3.01087         0.001418      0.006207      0.006469
      2.00029      4.01658     12.49427         0.003034      0.009318     -0.004706
     -0.04762     10.69734     11.93847        -0.012956     -0.017425      0.013901
     -3.63353      7.88460      9.90096         0.004410     -0.006565      0.003618
      8.59655      0.85421      4.97076         0.006829      0.025676     -0.018538
      8.56414      8.79624     -0.02171         0.011109      0.003367     -0.004756
      1.65000     11.28100      9.98074        -0.001610     -0.021373      0.010903
      8.56839      7.09313      4.90826        -0.014121      0.004485     -0.001555
      1.74787      3.03329      0.00497         0.006976     -0.012460      0.007475
      3.27429      4.06116      4.92555        -0.003092      0.000315     -0.002255
      6.86868      6.83829      6.95594         0.007086     -0.008463      0.000736
      3.31683     11.82883      0.04917        -0.003982      0.006077     -0.002128
      2.49541      9.53660      8.15929         0.017036      0.013102     -0.023953
      3.96076      7.96279     10.01682         0.023165     -0.004071     -0.027207
      3.52104      0.02658     -0.04145        -0.000695     -0.001935      0.018315
     -1.85592      4.82341      9.94218         0.013588     -0.009186      0.006943
      5.02021      0.79538      4.92988         0.012437     -0.008402     -0.001023
      1.70794      4.56665      9.94644        -0.011499      0.020733      0.005782
      5.10439      8.87999      0.07914         0.004406     -0.002079      0.007592
      4.42313      5.34673      2.86603         0.009341     -0.009633      0.011251
     11.19142      1.42721     12.94668        -0.010641     -0.013629     -0.009971
     -1.82153     11.05310      9.93668         0.015805      0.004554     -0.003430
      4.94031      5.03789      6.76175        -0.000311     -0.004533      0.001966
      5.20836      6.90891      4.87968        -0.015697     -0.002284      0.009720
     10.48643      3.95557      4.96697         0.000365      0.001915     -0.010155
      4.76261     -0.00399      7.43938         0.020093      0.000466     -0.000127
     -2.46362     11.65999     12.40052         0.007873      0.015996      0.008744
      6.88679      9.53031      1.93619        -0.015813     -0.007625     -0.010059
     -2.11327      9.09859     11.73900        -0.012008      0.003163      0.001650
     -0.00719      2.82354      1.99620        -0.005718      0.007370     -0.008409
      6.76402      1.64852      6.75033        -0.019307      0.015956      0.009177
     -0.03013      5.57925     11.73650        -0.016338      0.001716      0.021501
      2.03468      1.15268      1.86945        -0.009085      0.009534      0.018502
     -1.79002      3.07373      0.01599         0.002926      0.008246      0.005621
     -4.89640     10.71670     13.02457        -0.004403     -0.019434      0.005481
      4.82079     10.72628     13.03748        -0.006970     -0.001114     -0.003837
      1.88305      6.73897      8.46241        -0.002580      0.009308     -0.023241
      2.04255      9.11333     11.50040        -0.002191      0.004416      0.002382
      6.90455      6.29270      2.94155        -0.009460     -0.004206      0.008075
     -2.04132      6.73190      8.08616        -0.021251     -0.008283     -0.001001
      4.78674      2.76009      3.13853        -0.008675     -0.005232      0.013808
      4.37626      7.61027      7.25593         0.012795      0.007519     -0.000908
      8.90811      2.78521      3.14788         0.000408      0.003297      0.001267
      4.29303      8.14000     12.61966         0.026467      0.002715      0.002777
     -4.52204      8.14386     12.37640        -0.002634      0.012262      0.004745
     -0.04389      2.35254     13.02480         0.006816     -0.015566     -0.007094
      4.82164      7.90798      2.49026         0.011211      0.017188     -0.010511
      1.50611     10.67312     11.47256         0.004458      0.005879      0.012078
     -5.36380      9.17788     13.30133         0.008940     -0.027303     -0.005618
     10.01268      3.95612      3.41195        -0.004302     -0.007778     -0.022542
      3.72870     11.87253      1.62491        -0.013561     -0.014181      0.005462
     -1.59295      5.18581      8.37334        -0.010169     -0.006047      0.002614
      1.52125      5.15812     11.44674        -0.024680      0.024984      0.021424
     -5.29442      9.17262      1.56279        -0.012979     -0.002267     -0.002592
     -1.60854     10.62735     11.49053        -0.003217     -0.021964     -0.013299
     -3.73802     11.88439      1.53816        -0.008430      0.008996      0.015935
      1.54947      2.68140      1.57935        -0.006179      0.007446      0.010094
     -1.60722      5.21854     11.49810        -0.014716      0.021044     -0.004417
      8.34127      1.30561      6.51605        -0.000071     -0.003582     -0.016397
     -1.56587      2.69829      1.58424        -0.006453      0.000410      0.010573
      9.97290      3.98163      6.51177        -0.001310      0.003609     -0.016222
     -1.59099     10.65967      8.36971        -0.008053     -0.000695     -0.005489
      8.41335      6.71203      6.48592         0.009993      0.023033     -0.011734
     -3.19064      7.91035     11.46961        -0.002533     -0.011950      0.000759
      1.51314      5.17947      8.42888        -0.017779      0.004872     -0.002755
      8.44151      6.66600      3.34147         0.005227     -0.007247      0.000847
      5.31393      9.20203      1.65969         0.000978      0.020121     -0.001442
      5.32559      6.60598      6.47023         0.023749     -0.023606      0.002338
      3.72352      3.98444      6.49394         0.000420      0.000375     -0.013945
     -3.13235      7.91628      8.34353         0.000289      0.002512      0.013629
      3.07366      0.00834     13.28706        -0.009139     -0.017894      0.002056
      5.34445      6.60505      3.30426        -0.014278      0.004070     -0.010579
      3.13623      7.92596     11.51367         0.018813     -0.007527      0.018985
     -1.60642      2.70886     13.33315        -0.012800     -0.009562     -0.009525
      5.25912      9.20177     13.39998         0.006671      0.008354      0.003381
      8.40436      1.25492      3.40791         0.013871      0.011537      0.003224
      1.52239      2.70501     13.32152         0.004430      0.001093      0.012568
      3.72297      3.97132      3.36571        -0.009120     -0.006202     -0.001152
     10.57219     -0.01402     13.36097        -0.021099      0.002902      0.021993
      1.53186     10.76650      8.42372        -0.016500      0.000003     -0.011342
      5.27827      1.22843      3.38136         0.022488     -0.007177      0.000224
      5.20807      1.23453      6.49118         0.002318     -0.003792      0.003577
 -----------------------------------------------------------------------------------
    total drift:                               -0.073251     -0.032629     -0.019684


--------------------------------------------------------------------------------------------------------



  FREE ENERGIE OF THE ION-ELECTRON SYSTEM (eV)
  ---------------------------------------------------
  free  energy   TOTEN  =      -872.57524664 eV

  energy  without entropy=     -872.57524664  energy(sigma->0) =     -872.57524664
 
 d Force = 0.1721774E-02[ 0.105E-02, 0.240E-02]  d Energy = 0.1726098E-02-0.432E-05
 d Force = 0.1700450E+01[ 0.171E+01, 0.169E+01]  d Ewald  = 0.1700452E+01-0.193E-05


--------------------------------------------------------------------------------------------------------


    POTLOK:  cpu time    0.0530: real time    0.0532


--------------------------------------------------------------------------------------------------------


 Conjugate gradient step on ions:
 trial-energy change:   -0.001726  1 .order   -0.001722   -0.002397   -0.001046
  (g-gl).g = 0.437E-02      g.g   = 0.498E-02  gl.gl    = 0.576E-02
 g(Force)  = 0.498E-02   g(Stress)= 0.000E+00 ortho     = 0.389E-03
 gamma     =   0.75897
 trial     =   0.45406
 opt step  =   0.79424  (harmonic =   0.80567) maximal distance =0.00408518
 next E    =  -872.575640   (d E  =  -0.00212)


--------------------------------------------------------------------------------------------------------


  
 reached required accuracy - stopping structural energy minimisation
     LOOP+:  cpu time   19.6572: real time   19.8648
    4ORBIT:  cpu time    0.0000: real time    0.0000

 total amount of memory used by VASP on root node    53529. kBytes
========================================================================

   base      :      30000. kBytes
   nonlr-proj:       5703. kBytes
   fftplans  :       4343. kBytes
   grid      :       8131. kBytes
   one-center:         58. kBytes
   wavefun   :       5294. kBytes
 
  
  
 General timing and accounting informations for this job:
 ========================================================
  
                  Total CPU time used (sec):     1579.771
                            User time (sec):     1506.192
                          System time (sec):       73.579
                         Elapsed time (sec):     1593.761
  
                   Maximum memory used (kb):       80968.
                   Average memory used (kb):           0.
  
                          Minor page faults:       466259
                          Major page faults:           85
                 Voluntary context switches:        69249
