<?xml version="1.0" encoding="ISO-8859-1"?>
<modeling>
 <generator>
  <i name="program" type="string">vasp </i>
  <i name="version" type="string">5.4.1  </i>
  <i name="subversion" type="string">05Feb16 (build Feb 08 2018 09:21:51) complex                          parallel </i>
  <i name="platform" type="string">LinuxIFC </i>
  <i name="date" type="string">2019 10 17 </i>
  <i name="time" type="string">11:36:48 </i>
 </generator>
 <incar>
  <i type="string" name="PREC">normal</i>
  <i type="int" name="IBRION">     2</i>
  <i name="EDIFF">      0.00000100</i>
  <i name="EDIFFG">     -0.05000000</i>
  <i type="int" name="NSW">   500</i>
  <i name="ENCUT">    400.00000000</i>
  <i type="string" name="LREAL"> A</i>
  <i type="int" name="ISMEAR">     0</i>
  <i name="SIGMA">      0.10000000</i>
  <i type="logical" name="LWAVE"> F  </i>
  <i type="logical" name="LCHARG"> F  </i>
  <v type="int" name="KPOINT_BSE">    -1     0     0     0</v>
 </incar>
 <kpoints>
  <generation param="Monkhorst-Pack">
   <v type="int" name="divisions">       1        1        1 </v>
   <v name="usershift">      0.00000000       0.00000000       0.00000000 </v>
   <v name="genvec1">      1.00000000      -0.00000000       0.00000000 </v>
   <v name="genvec2">      0.00000000       1.00000000      -0.00000000 </v>
   <v name="genvec3">     -0.00000000       0.00000000       1.00000000 </v>
   <v name="shift">      0.00000000       0.00000000       0.00000000 </v>
  </generation>
  <varray name="kpointlist" >
   <v>       0.00000000       0.00000000       0.00000000 </v>
  </varray>
  <varray name="weights" >
   <v>       1.00000000 </v>
  </varray>
 </kpoints>
 <parameters>
  <separator name="general" >
   <i type="string" name="SYSTEM">unknown system</i>
   <i type="logical" name="LCOMPAT"> F  </i>
  </separator>
  <separator name="electronic" >
   <i type="string" name="PREC">normal</i>
   <i name="ENMAX">    400.00000000</i>
   <i name="ENAUG">    644.87300000</i>
   <i name="EDIFF">      0.00000100</i>
   <i type="int" name="IALGO">    38</i>
   <i type="int" name="IWAVPR">    11</i>
   <i type="int" name="NBANDS">   352</i>
   <i name="NELECT">    582.00000000</i>
   <i type="int" name="TURBO">     0</i>
   <i type="int" name="IRESTART">     0</i>
   <i type="int" name="NREBOOT">     0</i>
   <i type="int" name="NMIN">     0</i>
   <i name="EREF">      0.00000000</i>
   <separator name="electronic smearing" >
    <i type="int" name="ISMEAR">     0</i>
    <i name="SIGMA">      0.10000000</i>
    <i name="KSPACING">      0.50000000</i>
    <i type="logical" name="KGAMMA"> T  </i>
   </separator>
   <separator name="electronic projectors" >
    <i type="logical" name="LREAL"> T  </i>
    <v name="ROPT">     -0.00050000     -0.00050000     -0.00050000     -0.00050000     -0.00050000</v>
    <i type="int" name="LMAXPAW">  -100</i>
    <i type="int" name="LMAXMIX">     2</i>
    <i type="logical" name="NLSPLINE"> F  </i>
   </separator>
   <separator name="electronic startup" >
    <i type="int" name="ISTART">     0</i>
    <i type="int" name="ICHARG">     2</i>
    <i type="int" name="INIWAV">     1</i>
   </separator>
   <separator name="electronic spin" >
    <i type="int" name="ISPIN">     1</i>
    <i type="logical" name="LNONCOLLINEAR"> F  </i>
    <v name="MAGMOM">      1.00000000      1.00000000      1.00000000      1.00000000      1.00000000      1.00000000      1.00000000      1.00000000      1.00000000      1.00000000      1.00000000      1.00000000      1.00000000      1.00000000      1.00000000      1.00000000      1.00000000      1.00000000      1.00000000      1.00000000
      1.00000000      1.00000000      1.00000000      1.00000000      1.00000000      1.00000000      1.00000000      1.00000000      1.00000000      1.00000000      1.00000000      1.00000000      1.00000000      1.00000000      1.00000000      1.00000000      1.00000000      1.00000000      1.00000000      1.00000000
      1.00000000      1.00000000      1.00000000      1.00000000      1.00000000      1.00000000      1.00000000      1.00000000      1.00000000      1.00000000      1.00000000      1.00000000      1.00000000      1.00000000      1.00000000      1.00000000      1.00000000      1.00000000      1.00000000      1.00000000
      1.00000000      1.00000000      1.00000000      1.00000000      1.00000000      1.00000000      1.00000000      1.00000000      1.00000000      1.00000000      1.00000000      1.00000000      1.00000000      1.00000000      1.00000000      1.00000000      1.00000000      1.00000000      1.00000000      1.00000000
      1.00000000      1.00000000      1.00000000      1.00000000      1.00000000      1.00000000      1.00000000      1.00000000      1.00000000      1.00000000      1.00000000      1.00000000      1.00000000      1.00000000      1.00000000      1.00000000      1.00000000      1.00000000      1.00000000      1.00000000
      1.00000000      1.00000000      1.00000000      1.00000000      1.00000000      1.00000000      1.00000000      1.00000000      1.00000000      1.00000000      1.00000000      1.00000000</v>
    <i name="NUPDOWN">     -1.00000000</i>
    <i type="logical" name="LSORBIT"> F  </i>
    <v name="SAXIS">      0.00000000      0.00000000      1.00000000</v>
    <i type="logical" name="LSPIRAL"> F  </i>
    <v name="QSPIRAL">      0.00000000      0.00000000      0.00000000</v>
    <i type="logical" name="LZEROZ"> F  </i>
   </separator>
   <separator name="electronic exchange-correlation" >
    <i type="logical" name="LASPH"> F  </i>
    <i type="logical" name="LMETAGGA"> F  </i>
   </separator>
   <separator name="electronic convergence" >
    <i type="int" name="NELM">    60</i>
    <i type="int" name="NELMDL">    -5</i>
    <i type="int" name="NELMIN">     2</i>
    <i name="ENINI">    400.00000000</i>
    <separator name="electronic convergence detail" >
     <i type="logical" name="LDIAG"> T  </i>
     <i type="logical" name="LSUBROT"> F  </i>
     <i name="WEIMIN">      0.00100000</i>
     <i name="EBREAK">      0.00000000</i>
     <i name="DEPER">      0.30000000</i>
     <i type="int" name="NRMM">     4</i>
     <i name="TIME">      0.40000000</i>
    </separator>
   </separator>
   <separator name="electronic mixer" >
    <i name="AMIX">      0.40000000</i>
    <i name="BMIX">      1.00000000</i>
    <i name="AMIN">      0.10000000</i>
    <i name="AMIX_MAG">      1.60000000</i>
    <i name="BMIX_MAG">      1.00000000</i>
    <separator name="electronic mixer details" >
     <i type="int" name="IMIX">     4</i>
     <i type="logical" name="MIXFIRST"> F  </i>
     <i type="int" name="MAXMIX">   -45</i>
     <i name="WC">    100.00000000</i>
     <i type="int" name="INIMIX">     1</i>
     <i type="int" name="MIXPRE">     1</i>
     <i type="int" name="MREMOVE">     5</i>
    </separator>
   </separator>
   <separator name="electronic dipolcorrection" >
    <i type="logical" name="LDIPOL"> F  </i>
    <i type="logical" name="LMONO"> F  </i>
    <i type="int" name="IDIPOL">     0</i>
    <i name="EPSILON">      1.00000000</i>
    <v name="DIPOL">   -100.00000000   -100.00000000   -100.00000000</v>
    <i name="EFIELD">      0.00000000</i>
   </separator>
  </separator>
  <separator name="grids" >
   <i type="int" name="NGX">    70</i>
   <i type="int" name="NGY">    70</i>
   <i type="int" name="NGZ">    80</i>
   <i type="int" name="NGXF">   140</i>
   <i type="int" name="NGYF">   140</i>
   <i type="int" name="NGZF">   160</i>
   <i type="logical" name="ADDGRID"> F  </i>
  </separator>
  <separator name="ionic" >
   <i type="int" name="NSW">   500</i>
   <i type="int" name="IBRION">     2</i>
   <i type="int" name="ISIF">     2</i>
   <i name="PSTRESS">      0.00000000</i>
   <i name="EDIFFG">     -0.05000000</i>
   <i type="int" name="NFREE">     1</i>
   <i name="POTIM">      0.50000000</i>
   <i name="SMASS">     -3.00000000</i>
   <i name="SCALEE">      1.00000000</i>
  </separator>
  <separator name="ionic md" >
   <i name="TEBEG">      0.00010000</i>
   <i name="TEEND">      0.00010000</i>
   <i type="int" name="NBLOCK">     1</i>
   <i type="int" name="KBLOCK">   500</i>
   <i type="int" name="NPACO">   256</i>
   <i name="APACO">     16.00000000</i>
  </separator>
  <separator name="symmetry" >
   <i type="int" name="ISYM">     2</i>
   <i name="SYMPREC">      0.00001000</i>
  </separator>
  <separator name="dos" >
   <i type="logical" name="LORBIT"> F  </i>
   <v name="RWIGS">     -1.00000000     -1.00000000     -1.00000000     -1.00000000     -1.00000000</v>
   <i type="int" name="NEDOS">   301</i>
   <i name="EMIN">     10.00000000</i>
   <i name="EMAX">    -10.00000000</i>
   <i name="EFERMI">      0.00000000</i>
  </separator>
  <separator name="writing" >
   <i type="int" name="NWRITE">     2</i>
   <i type="logical" name="LWAVE"> F  </i>
   <i type="logical" name="LCHARG"> F  </i>
   <i type="logical" name="LPARD"> F  </i>
   <i type="logical" name="LVTOT"> F  </i>
   <i type="logical" name="LVHAR"> F  </i>
   <i type="logical" name="LELF"> F  </i>
   <i type="logical" name="LOPTICS"> F  </i>
   <v name="STM">      0.00000000      0.00000000      0.00000000      0.00000000      0.00000000      0.00000000      0.00000000</v>
  </separator>
  <separator name="performance" >
   <i type="int" name="NPAR">     8</i>
   <i type="int" name="NSIM">     4</i>
   <i type="int" name="NBLK">    -1</i>
   <i type="logical" name="LPLANE"> T  </i>
   <i type="logical" name="LSCALAPACK"> F  </i>
   <i type="logical" name="LSCAAWARE"> F  </i>
   <i type="logical" name="LSCALU"> F  </i>
   <i type="logical" name="LASYNC"> F  </i>
   <i type="logical" name="LORBITALREAL"> F  </i>
  </separator>
  <separator name="miscellaneous" >
   <i type="int" name="IDIOT">     3</i>
   <i type="logical" name="LMUSIC"> F  </i>
   <v name="POMASS">     26.98100000     12.01100000      1.00000000     16.00000000     28.08500000</v>
   <v name="DARWINR">      0.00000000      0.00000000      0.00000000      0.00000000      0.00000000</v>
   <v name="DARWINV">      1.00000000      1.00000000      1.00000000      1.00000000      1.00000000</v>
   <i type="logical" name="LCORR"> T  </i>
  </separator>
  <i type="logical" name="GGA_COMPAT"> T  </i>
  <i type="logical" name="LBERRY"> F  </i>
  <i type="int" name="ICORELEVEL">     0</i>
  <i type="logical" name="LDAU"> F  </i>
  <i type="int" name="I_CONSTRAINED_M">     0</i>
  <separator name="electronic exchange-correlation" >
   <i type="string" name="GGA">--</i>
   <i type="int" name="VOSKOWN">     0</i>
   <i type="logical" name="LHFCALC"> F  </i>
   <i type="string" name="PRECFOCK"></i>
   <i type="logical" name="LSYMGRAD"> F  </i>
   <i type="logical" name="LHFONE"> F  </i>
   <i type="logical" name="LRHFCALC"> F  </i>
   <i type="logical" name="LTHOMAS"> F  </i>
   <i type="logical" name="LMODELHF"> F  </i>
   <i name="ENCUT4O">     -1.00000000</i>
   <i type="int" name="EXXOEP">     0</i>
   <i type="int" name="FOURORBIT">     0</i>
   <i name="AEXX">      0.00000000</i>
   <i name="HFALPHA">      0.00000000</i>
   <i name="MCALPHA">      0.00000000</i>
   <i name="ALDAX">      1.00000000</i>
   <i name="AGGAX">      1.00000000</i>
   <i name="ALDAC">      1.00000000</i>
   <i name="AGGAC">      1.00000000</i>
   <i type="int" name="NKREDX">     1</i>
   <i type="int" name="NKREDY">     1</i>
   <i type="int" name="NKREDZ">     1</i>
   <i type="logical" name="SHIFTRED"> F  </i>
   <i type="logical" name="ODDONLY"> F  </i>
   <i type="logical" name="EVENONLY"> F  </i>
   <i type="int" name="LMAXFOCK">     0</i>
   <i type="int" name="NMAXFOCKAE">     0</i>
   <i type="logical" name="LFOCKAEDFT"> F  </i>
   <i name="HFSCREEN">      0.00000000</i>
   <i name="HFSCREENC">      0.00000000</i>
   <i type="int" name="NBANDSGWLOW">     0</i>
  </separator>
  <separator name="vdW DFT" >
   <i type="logical" name="LUSE_VDW"> F  </i>
   <i name="Zab_VDW">     -0.84910000</i>
   <i name="PARAM1">      0.12340000</i>
   <i name="PARAM2">      1.00000000</i>
   <i name="PARAM3">      0.00000000</i>
  </separator>
  <separator name="model GW" >
   <i type="int" name="MODEL_GW">     0</i>
   <i name="MODEL_EPS0">     13.02047138</i>
   <i name="MODEL_ALPHA">      1.00000000</i>
  </separator>
  <separator name="linear response parameters" >
   <i type="logical" name="LEPSILON"> F  </i>
   <i type="logical" name="LRPA"> F  </i>
   <i type="logical" name="LNABLA"> F  </i>
   <i type="logical" name="LVEL"> F  </i>
   <i type="int" name="KINTER">     0</i>
   <i name="CSHIFT">      0.10000000</i>
   <i name="OMEGAMAX">     -1.00000000</i>
   <i name="DEG_THRESHOLD">      0.00200000</i>
  </separator>
  <separator name="orbital magnetization" >
   <i type="logical" name="NUCIND"> F  </i>
   <v name="MAGPOS">      0.00000000      0.00000000      0.00000000</v>
   <i type="logical" name="LNICSALL"> T  </i>
   <i type="logical" name="ORBITALMAG"> F  </i>
   <i type="logical" name="LMAGBLOCH"> F  </i>
   <i type="logical" name="LCHIMAG"> F  </i>
   <i type="logical" name="LGAUGE"> T  </i>
   <i type="int" name="MAGATOM">     0</i>
   <v name="MAGDIPOL">      0.00000000      0.00000000      0.00000000</v>
   <v name="AVECCONST">      0.00000000      0.00000000      0.00000000</v>
  </separator>
  <separator name="response functions" >
   <i type="logical" name="LADDER"> F  </i>
   <i type="logical" name="LFXC"> F  </i>
   <i type="logical" name="LHARTREE"> T  </i>
   <i type="int" name="IBSE">     0</i>
   <v type="int" name="KPOINT">    -1     0     0     0</v>
   <i type="logical" name="LTCTE"> F  </i>
   <i type="logical" name="LTETE"> F  </i>
   <i type="logical" name="LTRIPLET"> F  </i>
   <i type="logical" name="LFXCEPS"> F  </i>
   <i type="logical" name="LFXHEG"> F  </i>
   <i type="int" name="NATURALO">     0</i>
   <i type="logical" name="L2ORDER"> F  </i>
   <i type="logical" name="LUSEW"> F  </i>
   <i name="ENCUTGW">     -2.00000000</i>
   <i name="ENCUTGWSOFT">     -2.00000000</i>
   <i name="ENCUTLF">     -1.00000000</i>
   <i type="int" name="LMAXMP2">    -1</i>
   <i name="SCISSOR">      0.00000000</i>
   <i type="int" name="NOMEGA">     0</i>
   <i type="int" name="NOMEGAR">     0</i>
   <i type="int" name="NBANDSGW">    -1</i>
   <i type="int" name="NBANDSO">    -1</i>
   <i type="int" name="NBANDSV">    -1</i>
   <i type="int" name="NELM">     1</i>
   <i type="int" name="NELMHF">     1</i>
   <i type="int" name="DIM">     3</i>
   <i type="int" name="ANTIRES">     0</i>
   <i name="OMEGAMAX">    -30.00000000</i>
   <i name="OMEGAMIN">    -30.00000000</i>
   <i name="OMEGATL">   -200.00000000</i>
   <i type="int" name="OMEGAGRID">     0</i>
   <i name="CSHIFT">     -0.10000000</i>
   <i type="logical" name="SELFENERGY"> F  </i>
   <i type="logical" name="LSPECTRAL"> F  </i>
   <i type="logical" name="LSPECTRALGW"> F  </i>
   <i type="logical" name="LSINGLES"> F  </i>
   <i type="logical" name="LFERMIGW"> F  </i>
   <i type="logical" name="ODDONLYGW"> F  </i>
   <i type="logical" name="EVENONLYGW"> F  </i>
   <i type="int" name="NKREDLFX">     1</i>
   <i type="int" name="NKREDLFY">     1</i>
   <i type="int" name="NKREDLFZ">     1</i>
   <i type="int" name="MAXMEM">  1800</i>
   <i type="int" name="TELESCOPE">     0</i>
   <i type="int" name="TAUPAR">     1</i>
   <i type="int" name="OMEGAPAR">    -1</i>
   <i name="LAMBDA">      1.00000000</i>
  </separator>
  <separator name="External order field" >
   <i name="OFIELD_KAPPA">      0.00000000</i>
   <v name="OFIELD_K">      0.00000000      0.00000000      0.00000000</v>
   <i name="OFIELD_Q6_NEAR">      0.00000000</i>
   <i name="OFIELD_Q6_FAR">      0.00000000</i>
   <i name="OFIELD_A">      0.00000000</i>
  </separator>
 </parameters>
 <atominfo>
  <atoms>     112 </atoms>
  <types>       5 </types>
  <array name="atoms" >
   <dimension dim="1">ion</dimension>
   <field type="string">element</field>
   <field type="int">atomtype</field>
   <set>
    <rc><c>Al</c><c>   1</c></rc>
    <rc><c>C </c><c>   2</c></rc>
    <rc><c>H </c><c>   3</c></rc>
    <rc><c>H </c><c>   3</c></rc>
    <rc><c>H </c><c>   3</c></rc>
    <rc><c>O </c><c>   4</c></rc>
    <rc><c>O </c><c>   4</c></rc>
    <rc><c>O </c><c>   4</c></rc>
    <rc><c>O </c><c>   4</c></rc>
    <rc><c>O </c><c>   4</c></rc>
    <rc><c>O </c><c>   4</c></rc>
    <rc><c>O </c><c>   4</c></rc>
    <rc><c>O </c><c>   4</c></rc>
    <rc><c>O </c><c>   4</c></rc>
    <rc><c>O </c><c>   4</c></rc>
    <rc><c>O </c><c>   4</c></rc>
    <rc><c>O </c><c>   4</c></rc>
    <rc><c>O </c><c>   4</c></rc>
    <rc><c>O </c><c>   4</c></rc>
    <rc><c>O </c><c>   4</c></rc>
    <rc><c>O </c><c>   4</c></rc>
    <rc><c>O </c><c>   4</c></rc>
    <rc><c>O </c><c>   4</c></rc>
    <rc><c>O </c><c>   4</c></rc>
    <rc><c>O </c><c>   4</c></rc>
    <rc><c>O </c><c>   4</c></rc>
    <rc><c>O </c><c>   4</c></rc>
    <rc><c>O </c><c>   4</c></rc>
    <rc><c>O </c><c>   4</c></rc>
    <rc><c>O </c><c>   4</c></rc>
    <rc><c>O </c><c>   4</c></rc>
    <rc><c>O </c><c>   4</c></rc>
    <rc><c>O </c><c>   4</c></rc>
    <rc><c>O </c><c>   4</c></rc>
    <rc><c>O </c><c>   4</c></rc>
    <rc><c>O </c><c>   4</c></rc>
    <rc><c>O </c><c>   4</c></rc>
    <rc><c>O </c><c>   4</c></rc>
    <rc><c>O </c><c>   4</c></rc>
    <rc><c>O </c><c>   4</c></rc>
    <rc><c>O </c><c>   4</c></rc>
    <rc><c>O </c><c>   4</c></rc>
    <rc><c>O </c><c>   4</c></rc>
    <rc><c>O </c><c>   4</c></rc>
    <rc><c>O </c><c>   4</c></rc>
    <rc><c>O </c><c>   4</c></rc>
    <rc><c>O </c><c>   4</c></rc>
    <rc><c>O </c><c>   4</c></rc>
    <rc><c>O </c><c>   4</c></rc>
    <rc><c>O </c><c>   4</c></rc>
    <rc><c>O </c><c>   4</c></rc>
    <rc><c>O </c><c>   4</c></rc>
    <rc><c>O </c><c>   4</c></rc>
    <rc><c>O </c><c>   4</c></rc>
    <rc><c>O </c><c>   4</c></rc>
    <rc><c>O </c><c>   4</c></rc>
    <rc><c>O </c><c>   4</c></rc>
    <rc><c>O </c><c>   4</c></rc>
    <rc><c>O </c><c>   4</c></rc>
    <rc><c>O </c><c>   4</c></rc>
    <rc><c>O </c><c>   4</c></rc>
    <rc><c>O </c><c>   4</c></rc>
    <rc><c>O </c><c>   4</c></rc>
    <rc><c>O </c><c>   4</c></rc>
    <rc><c>O </c><c>   4</c></rc>
    <rc><c>O </c><c>   4</c></rc>
    <rc><c>O </c><c>   4</c></rc>
    <rc><c>O </c><c>   4</c></rc>
    <rc><c>O </c><c>   4</c></rc>
    <rc><c>O </c><c>   4</c></rc>
    <rc><c>O </c><c>   4</c></rc>
    <rc><c>O </c><c>   4</c></rc>
    <rc><c>O </c><c>   4</c></rc>
    <rc><c>O </c><c>   4</c></rc>
    <rc><c>O </c><c>   4</c></rc>
    <rc><c>O </c><c>   4</c></rc>
    <rc><c>O </c><c>   4</c></rc>
    <rc><c>Si</c><c>   5</c></rc>
    <rc><c>Si</c><c>   5</c></rc>
    <rc><c>Si</c><c>   5</c></rc>
    <rc><c>Si</c><c>   5</c></rc>
    <rc><c>Si</c><c>   5</c></rc>
    <rc><c>Si</c><c>   5</c></rc>
    <rc><c>Si</c><c>   5</c></rc>
    <rc><c>Si</c><c>   5</c></rc>
    <rc><c>Si</c><c>   5</c></rc>
    <rc><c>Si</c><c>   5</c></rc>
    <rc><c>Si</c><c>   5</c></rc>
    <rc><c>Si</c><c>   5</c></rc>
    <rc><c>Si</c><c>   5</c></rc>
    <rc><c>Si</c><c>   5</c></rc>
    <rc><c>Si</c><c>   5</c></rc>
    <rc><c>Si</c><c>   5</c></rc>
    <rc><c>Si</c><c>   5</c></rc>
    <rc><c>Si</c><c>   5</c></rc>
    <rc><c>Si</c><c>   5</c></rc>
    <rc><c>Si</c><c>   5</c></rc>
    <rc><c>Si</c><c>   5</c></rc>
    <rc><c>Si</c><c>   5</c></rc>
    <rc><c>Si</c><c>   5</c></rc>
    <rc><c>Si</c><c>   5</c></rc>
    <rc><c>Si</c><c>   5</c></rc>
    <rc><c>Si</c><c>   5</c></rc>
    <rc><c>Si</c><c>   5</c></rc>
    <rc><c>Si</c><c>   5</c></rc>
    <rc><c>Si</c><c>   5</c></rc>
    <rc><c>Si</c><c>   5</c></rc>
    <rc><c>Si</c><c>   5</c></rc>
    <rc><c>Si</c><c>   5</c></rc>
    <rc><c>Si</c><c>   5</c></rc>
    <rc><c>Si</c><c>   5</c></rc>
    <rc><c>Si</c><c>   5</c></rc>
   </set>
  </array>
  <array name="atomtypes" >
   <dimension dim="1">type</dimension>
   <field type="int">atomspertype</field>
   <field type="string">element</field>
   <field>mass</field>
   <field>valence</field>
   <field type="string">pseudopotential</field>
   <set>
    <rc><c>   1</c><c>Al</c><c>     26.98100000</c><c>      3.00000000</c><c>  PAW_PBE Al 04Jan2001                  </c></rc>
    <rc><c>   1</c><c>C </c><c>     12.01100000</c><c>      4.00000000</c><c>  PAW_PBE C 08Apr2002                   </c></rc>
    <rc><c>   3</c><c>H </c><c>      1.00000000</c><c>      1.00000000</c><c>  PAW_PBE H 15Jun2001                   </c></rc>
    <rc><c>  72</c><c>O </c><c>     16.00000000</c><c>      6.00000000</c><c>  PAW_PBE O 08Apr2002                   </c></rc>
    <rc><c>  35</c><c>Si</c><c>     28.08500000</c><c>      4.00000000</c><c>  PAW_PBE Si 05Jan2001                  </c></rc>
   </set>
  </array>
 </atominfo>
 <structure name="initialpos" >
  <crystal>
   <varray name="basis" >
    <v>      13.72957181      -0.00462456      -0.00141144 </v>
    <v>      -6.86873914      11.89091482       0.00181973 </v>
    <v>      -0.00151065       0.00130727      14.89037843 </v>
   </varray>
   <i name="volume">   2430.48799023 </i>
   <varray name="rec_basis" >
    <v>       0.07284966       0.04208131       0.00000370 </v>
    <v>       0.00002833       0.08411419      -0.00000738 </v>
    <v>       0.00000690      -0.00000629       0.06715746 </v>
   </varray>
  </crystal>
  <varray name="positions" >
   <v>       0.56226675       0.66695774       0.56210364 </v>
   <v>       0.70344234       0.66514516       0.66181607 </v>
   <v>       0.69847612       0.69652556       0.59658482 </v>
   <v>       0.67725924       0.57742419       0.67036017 </v>
   <v>       0.73459165       0.72148573       0.71850324 </v>
   <v>       0.01866908       0.33415778       0.83400028 </v>
   <v>       0.21409633       0.42707628       0.53524471 </v>
   <v>       0.54684068       0.09367858       0.20255533 </v>
   <v>       0.88033373       0.76060205       0.86690236 </v>
   <v>       0.45307532       0.54735605       0.79899071 </v>
   <v>       0.12054702       0.87953215       0.13137146 </v>
   <v>       0.09356834       0.54704988       0.79753904 </v>
   <v>       0.42908437       0.21450775       0.46642178 </v>
   <v>       0.76014491       0.88009731       0.13310068 </v>
   <v>       0.21378515       0.78703006       0.53379068 </v>
   <v>       0.90028721       0.09915112       0.12387986 </v>
   <v>       0.23937203       0.11999702       0.86781467 </v>
   <v>       0.86357454       0.43151607       0.45676915 </v>
   <v>       0.43242939       0.86426723       0.54370028 </v>
   <v>       0.98229452       0.31530457       0.16694177 </v>
   <v>       0.64817130       0.99953414       0.49955176 </v>
   <v>       0.00043896       0.64720847       0.49975529 </v>
   <v>       0.33298125       0.31452668       0.16704582 </v>
   <v>       0.98098642       0.66644197       0.16658376 </v>
   <v>       0.35239198       0.35174152       0.50050091 </v>
   <v>       0.68385168       0.01788778       0.16566335 </v>
   <v>       0.66669377       0.98186541       0.83352303 </v>
   <v>       0.00116992       0.35335410       0.49925248 </v>
   <v>       0.78762049       0.21296121       0.46562061 </v>
   <v>       0.33373752       0.01849548       0.16668310 </v>
   <v>       0.90604538       0.45293233       0.20052744 </v>
   <v>       0.31495955       0.33394208       0.83414386 </v>
   <v>       0.45343721       0.90696615       0.79859222 </v>
   <v>       0.07328832       0.66873069       0.66657635 </v>
   <v>       0.66878397       0.07248771       0.33291341 </v>
   <v>       0.99839898       0.73872197       0.99995682 </v>
   <v>       0.59484588       0.92882677       0.66664679 </v>
   <v>       0.92775304       0.59328347       0.33317011 </v>
   <v>       0.26044392       0.26022676       0.00041043 </v>
   <v>       0.40496547       0.33173231       0.33375974 </v>
   <v>       0.78717796       0.57370545       0.46504080 </v>
   <v>       0.73962094       0.99881333       0.99981828 </v>
   <v>       0.57346146       0.78656886       0.53553586 </v>
   <v>       0.59502641       0.66649762       0.66714202 </v>
   <v>       0.26173374       0.00093142       0.99988745 </v>
   <v>       0.07171686       0.40445488       0.66663892 </v>
   <v>       0.40502615       0.07341303       0.33357486 </v>
   <v>       0.33388493       0.40556150       0.66715660 </v>
   <v>       0.74130148       0.74157771       0.99990420 </v>
   <v>       0.54626077       0.45356368       0.20249386 </v>
   <v>       0.88005958       0.12063688       0.86801315 </v>
   <v>       0.33290645       0.92704622       0.66660571 </v>
   <v>       0.56813333       0.43345568       0.45573462 </v>
   <v>       0.66787315       0.59620520       0.33318521 </v>
   <v>       0.92707692       0.33365692       0.33309150 </v>
   <v>       0.35337550       0.00075342       0.50030064 </v>
   <v>       0.31507762       0.98219159       0.83302738 </v>
   <v>       0.90175571       0.80301538       0.12424376 </v>
   <v>       0.23451294       0.76604255       0.79065746 </v>
   <v>       0.11938162       0.23874371       0.13244245 </v>
   <v>       0.56886513       0.13557705       0.45505081 </v>
   <v>       0.23426633       0.46883248       0.78952332 </v>
   <v>       0.19789636       0.09842721       0.12373094 </v>
   <v>       0.00001922       0.26079870       0.00040007 </v>
   <v>       0.09929620       0.90094046       0.87711490 </v>
   <v>       0.80289743       0.90184265       0.87522089 </v>
   <v>       0.43312280       0.56754296       0.54387454 </v>
   <v>       0.53149813       0.76617893       0.78927568 </v>
   <v>       0.76513887       0.53069600       0.21050735 </v>
   <v>       0.13681379       0.56845723       0.54503361 </v>
   <v>       0.46898042       0.23467224       0.20963910 </v>
   <v>       0.64913284       0.64895484       0.50026552 </v>
   <v>       0.76597739       0.23394914       0.20912494 </v>
   <v>       0.66631742       0.68549264       0.83419044 </v>
   <v>       0.01850874       0.68504333       0.83354036 </v>
   <v>       0.09893653       0.19841567       0.87681325 </v>
   <v>       0.68535530       0.66617265       0.16567902 </v>
   <v>       0.56160226       0.89548670       0.77161425 </v>
   <v>       0.99963954       0.77178059       0.89479173 </v>
   <v>       0.89488496       0.33352588       0.22786143 </v>
   <v>       0.77144754       0.99942864       0.10518678 </v>
   <v>       0.10592703       0.43874517       0.56189606 </v>
   <v>       0.33357859       0.43886748       0.77206256 </v>
   <v>       0.00004570       0.77197853       0.10511512 </v>
   <v>       0.33358113       0.89516793       0.77182313 </v>
   <v>       0.22843925       0.99974974       0.10499738 </v>
   <v>       0.22769218       0.22754836       0.10550695 </v>
   <v>       0.10497779       0.43863490       0.77151563 </v>
   <v>       0.66790209       0.10513258       0.43790817 </v>
   <v>       0.00006699       0.22803651       0.10547304 </v>
   <v>       0.89486199       0.33327201       0.43832718 </v>
   <v>       0.33354587       0.89477868       0.56149855 </v>
   <v>       0.89471565       0.56103274       0.43828992 </v>
   <v>       0.10537040       0.66709381       0.77164668 </v>
   <v>       0.33375432       0.43838063       0.56208668 </v>
   <v>       0.89452606       0.56088599       0.22808763 </v>
   <v>       0.77256536       0.77270690       0.10534218 </v>
   <v>       0.66765425       0.56266940       0.43814029 </v>
   <v>       0.43903444       0.33331600       0.43871159 </v>
   <v>       0.10601279       0.66735158       0.56164940 </v>
   <v>       0.22845574       0.00058940       0.89487405 </v>
   <v>       0.66657228       0.56165633       0.22836123 </v>
   <v>       0.56149853       0.66686609       0.77198996 </v>
   <v>       0.99987949       0.22851408       0.89520799 </v>
   <v>       0.77276445       0.77281234       0.89450369 </v>
   <v>       0.66676104       0.10493668       0.22800227 </v>
   <v>       0.22801816       0.22811264       0.89521057 </v>
   <v>       0.43835039       0.33325187       0.22863568 </v>
   <v>       0.77236684       0.00040877       0.89457899 </v>
   <v>       0.56181870       0.89478902       0.56175798 </v>
   <v>       0.43865925       0.10549905       0.22850692 </v>
   <v>       0.43951841       0.10602589       0.43844766 </v>
  </varray>
 </structure>
 <calculation>
  <scstep>
   <time name="dav">    2.20    2.21</time>
   <time name="total">    2.29    2.32</time>
   <energy>
    <i name="alphaZ">    476.21782353 </i>
    <i name="ewald">  -2319.53646536 </i>
    <i name="hartreedc"> -28825.62368293 </i>
    <i name="XCdc">   1691.82311674 </i>
    <i name="pawpsdc">  28217.01960844 </i>
    <i name="pawaedc"> -27699.40053531 </i>
    <i name="eentropy">     -0.14366457 </i>
    <i name="bandstr">  -2029.01927219 </i>
    <i name="atom">  34968.35250874 </i>
    <i name="e_fr_energy">   4479.68943709 </i>
    <i name="e_wo_entrp">   4479.83310166 </i>
    <i name="e_0_energy">   4479.76126937 </i>
   </energy>
  </scstep>
  <scstep>
   <time name="dav">    2.58    2.59</time>
   <time name="total">    2.59    2.60</time>
   <energy>
    <i name="e_fr_energy">   -405.91760998 </i>
    <i name="e_wo_entrp">   -405.91760998 </i>
    <i name="e_0_energy">   -405.91760998 </i>
   </energy>
  </scstep>
  <scstep>
   <time name="dav">    2.27    2.27</time>
   <time name="total">    2.27    2.28</time>
   <energy>
    <i name="e_fr_energy">   -972.82315245 </i>
    <i name="e_wo_entrp">   -972.82315245 </i>
    <i name="e_0_energy">   -972.82315245 </i>
   </energy>
  </scstep>
  <scstep>
   <time name="dav">    2.24    2.24</time>
   <time name="total">    2.24    2.25</time>
   <energy>
    <i name="e_fr_energy">   -986.16391364 </i>
    <i name="e_wo_entrp">   -986.16391364 </i>
    <i name="e_0_energy">   -986.16391364 </i>
   </energy>
  </scstep>
  <scstep>
   <time name="dav">    2.24    2.24</time>
   <time name="total">    2.31    2.32</time>
   <energy>
    <i name="e_fr_energy">   -986.56019940 </i>
    <i name="e_wo_entrp">   -986.56019940 </i>
    <i name="e_0_energy">   -986.56019940 </i>
   </energy>
  </scstep>
  <scstep>
   <time name="dav">    2.17    2.17</time>
   <time name="total">    2.29    2.30</time>
   <energy>
    <i name="e_fr_energy">   -869.70626016 </i>
    <i name="e_wo_entrp">   -869.70626016 </i>
    <i name="e_0_energy">   -869.70626016 </i>
   </energy>
  </scstep>
  <scstep>
   <time name="dav">    2.51    2.52</time>
   <time name="total">    2.63    2.64</time>
   <energy>
    <i name="e_fr_energy">   -869.06101898 </i>
    <i name="e_wo_entrp">   -869.06101898 </i>
    <i name="e_0_energy">   -869.06101898 </i>
   </energy>
  </scstep>
  <scstep>
   <time name="dav">    2.18    2.18</time>
   <time name="total">    2.29    2.30</time>
   <energy>
    <i name="e_fr_energy">   -868.52395622 </i>
    <i name="e_wo_entrp">   -868.52395622 </i>
    <i name="e_0_energy">   -868.52395622 </i>
   </energy>
  </scstep>
  <scstep>
   <time name="dav">    2.22    2.23</time>
   <time name="total">    2.34    2.35</time>
   <energy>
    <i name="e_fr_energy">   -868.35371740 </i>
    <i name="e_wo_entrp">   -868.35371740 </i>
    <i name="e_0_energy">   -868.35371740 </i>
   </energy>
  </scstep>
  <scstep>
   <time name="dav">    2.31    2.32</time>
   <time name="total">    2.43    2.44</time>
   <energy>
    <i name="e_fr_energy">   -868.35328412 </i>
    <i name="e_wo_entrp">   -868.35328412 </i>
    <i name="e_0_energy">   -868.35328412 </i>
   </energy>
  </scstep>
  <scstep>
   <time name="dav">    2.11    2.11</time>
   <time name="total">    2.22    2.23</time>
   <energy>
    <i name="e_fr_energy">   -868.35296781 </i>
    <i name="e_wo_entrp">   -868.35296781 </i>
    <i name="e_0_energy">   -868.35296781 </i>
   </energy>
  </scstep>
  <scstep>
   <time name="dav">    2.13    2.14</time>
   <time name="total">    2.25    2.26</time>
   <energy>
    <i name="e_fr_energy">   -868.35851841 </i>
    <i name="e_wo_entrp">   -868.35851841 </i>
    <i name="e_0_energy">   -868.35851841 </i>
   </energy>
  </scstep>
  <scstep>
   <time name="dav">    2.15    2.16</time>
   <time name="total">    2.26    2.27</time>
   <energy>
    <i name="e_fr_energy">   -868.37020326 </i>
    <i name="e_wo_entrp">   -868.37020326 </i>
    <i name="e_0_energy">   -868.37020326 </i>
   </energy>
  </scstep>
  <scstep>
   <time name="dav">    2.15    2.16</time>
   <time name="total">    2.26    2.27</time>
   <energy>
    <i name="e_fr_energy">   -868.37895338 </i>
    <i name="e_wo_entrp">   -868.37895338 </i>
    <i name="e_0_energy">   -868.37895338 </i>
   </energy>
  </scstep>
  <scstep>
   <time name="dav">    2.33    2.34</time>
   <time name="total">    2.45    2.46</time>
   <energy>
    <i name="e_fr_energy">   -868.38169554 </i>
    <i name="e_wo_entrp">   -868.38169554 </i>
    <i name="e_0_energy">   -868.38169554 </i>
   </energy>
  </scstep>
  <scstep>
   <time name="dav">    2.14    2.14</time>
   <time name="total">    2.44    2.46</time>
   <energy>
    <i name="e_fr_energy">   -868.38305329 </i>
    <i name="e_wo_entrp">   -868.38305329 </i>
    <i name="e_0_energy">   -868.38305329 </i>
   </energy>
  </scstep>
  <scstep>
   <time name="dav">    2.16    2.16</time>
   <time name="total">    2.27    2.28</time>
   <energy>
    <i name="e_fr_energy">   -868.38334216 </i>
    <i name="e_wo_entrp">   -868.38334216 </i>
    <i name="e_0_energy">   -868.38334216 </i>
   </energy>
  </scstep>
  <scstep>
   <time name="dav">    2.07    2.08</time>
   <time name="total">    2.18    2.19</time>
   <energy>
    <i name="e_fr_energy">   -868.38373693 </i>
    <i name="e_wo_entrp">   -868.38373693 </i>
    <i name="e_0_energy">   -868.38373693 </i>
   </energy>
  </scstep>
  <scstep>
   <time name="dav">    2.11    2.11</time>
   <time name="total">    2.22    2.22</time>
   <energy>
    <i name="e_fr_energy">   -868.38379590 </i>
    <i name="e_wo_entrp">   -868.38379590 </i>
    <i name="e_0_energy">   -868.38379590 </i>
   </energy>
  </scstep>
  <scstep>
   <time name="dav">    2.05    2.06</time>
   <time name="total">    2.16    2.17</time>
   <energy>
    <i name="e_fr_energy">   -868.38381451 </i>
    <i name="e_wo_entrp">   -868.38381451 </i>
    <i name="e_0_energy">   -868.38381451 </i>
   </energy>
  </scstep>
  <scstep>
   <time name="dav">    1.63    1.64</time>
   <time name="total">    1.74    1.75</time>
   <energy>
    <i name="e_fr_energy">   -868.38383253 </i>
    <i name="e_wo_entrp">   -868.38383253 </i>
    <i name="e_0_energy">   -868.38383253 </i>
   </energy>
  </scstep>
  <scstep>
   <time name="dav">    1.58    1.58</time>
   <time name="total">    1.69    1.70</time>
   <energy>
    <i name="e_fr_energy">   -868.38383727 </i>
    <i name="e_wo_entrp">   -868.38383727 </i>
    <i name="e_0_energy">   -868.38383727 </i>
   </energy>
  </scstep>
  <scstep>
   <time name="dav">    1.60    1.61</time>
   <time name="total">    1.65    1.66</time>
   <energy>
    <i name="alphaZ">    476.21782353 </i>
    <i name="ewald">  -2319.53646536 </i>
    <i name="hartreedc"> -30726.68928352 </i>
    <i name="XCdc">   1803.68905952 </i>
    <i name="pawpsdc">  91619.01639398 </i>
    <i name="pawaedc"> -91126.74200250 </i>
    <i name="eentropy">     -0.00000000 </i>
    <i name="bandstr">  -5562.69187260 </i>
    <i name="atom">  34968.35250874 </i>
    <i name="e_fr_energy">   -868.38383821 </i>
    <i name="e_wo_entrp">   -868.38383821 </i>
    <i name="e_0_energy">   -868.38383821 </i>
   </energy>
  </scstep>
  <structure>
   <crystal>
    <varray name="basis" >
     <v>      13.72957181      -0.00462456      -0.00141144 </v>
     <v>      -6.86873914      11.89091482       0.00181973 </v>
     <v>      -0.00151065       0.00130727      14.89037843 </v>
    </varray>
    <i name="volume">   2430.48799023 </i>
    <varray name="rec_basis" >
     <v>       0.07284966       0.04208131       0.00000370 </v>
     <v>       0.00002833       0.08411419      -0.00000738 </v>
     <v>       0.00000690      -0.00000629       0.06715746 </v>
    </varray>
   </crystal>
   <varray name="positions" >
    <v>       0.56226675       0.66695774       0.56210364 </v>
    <v>       0.70344234       0.66514516       0.66181607 </v>
    <v>       0.69847612       0.69652556       0.59658482 </v>
    <v>       0.67725924       0.57742419       0.67036017 </v>
    <v>       0.73459165       0.72148573       0.71850324 </v>
    <v>       0.01866908       0.33415778       0.83400028 </v>
    <v>       0.21409633       0.42707628       0.53524471 </v>
    <v>       0.54684068       0.09367858       0.20255533 </v>
    <v>       0.88033373       0.76060205       0.86690236 </v>
    <v>       0.45307532       0.54735605       0.79899071 </v>
    <v>       0.12054702       0.87953215       0.13137146 </v>
    <v>       0.09356834       0.54704988       0.79753904 </v>
    <v>       0.42908437       0.21450775       0.46642178 </v>
    <v>       0.76014491       0.88009731       0.13310068 </v>
    <v>       0.21378515       0.78703006       0.53379068 </v>
    <v>       0.90028721       0.09915112       0.12387986 </v>
    <v>       0.23937203       0.11999702       0.86781467 </v>
    <v>       0.86357454       0.43151607       0.45676915 </v>
    <v>       0.43242939       0.86426723       0.54370028 </v>
    <v>       0.98229452       0.31530457       0.16694177 </v>
    <v>       0.64817130       0.99953414       0.49955176 </v>
    <v>       0.00043896       0.64720847       0.49975529 </v>
    <v>       0.33298125       0.31452668       0.16704582 </v>
    <v>       0.98098642       0.66644197       0.16658376 </v>
    <v>       0.35239198       0.35174152       0.50050091 </v>
    <v>       0.68385168       0.01788778       0.16566335 </v>
    <v>       0.66669377       0.98186541       0.83352303 </v>
    <v>       0.00116992       0.35335410       0.49925248 </v>
    <v>       0.78762049       0.21296121       0.46562061 </v>
    <v>       0.33373752       0.01849548       0.16668310 </v>
    <v>       0.90604538       0.45293233       0.20052744 </v>
    <v>       0.31495955       0.33394208       0.83414386 </v>
    <v>       0.45343721       0.90696615       0.79859222 </v>
    <v>       0.07328832       0.66873069       0.66657635 </v>
    <v>       0.66878397       0.07248771       0.33291341 </v>
    <v>       0.99839898       0.73872197       0.99995682 </v>
    <v>       0.59484588       0.92882677       0.66664679 </v>
    <v>       0.92775304       0.59328347       0.33317011 </v>
    <v>       0.26044392       0.26022676       0.00041043 </v>
    <v>       0.40496547       0.33173231       0.33375974 </v>
    <v>       0.78717796       0.57370545       0.46504080 </v>
    <v>       0.73962094       0.99881333       0.99981828 </v>
    <v>       0.57346146       0.78656886       0.53553586 </v>
    <v>       0.59502641       0.66649762       0.66714202 </v>
    <v>       0.26173374       0.00093142       0.99988745 </v>
    <v>       0.07171686       0.40445488       0.66663892 </v>
    <v>       0.40502615       0.07341303       0.33357486 </v>
    <v>       0.33388493       0.40556150       0.66715660 </v>
    <v>       0.74130148       0.74157771       0.99990420 </v>
    <v>       0.54626077       0.45356368       0.20249386 </v>
    <v>       0.88005958       0.12063688       0.86801315 </v>
    <v>       0.33290645       0.92704622       0.66660571 </v>
    <v>       0.56813333       0.43345568       0.45573462 </v>
    <v>       0.66787315       0.59620520       0.33318521 </v>
    <v>       0.92707692       0.33365692       0.33309150 </v>
    <v>       0.35337550       0.00075342       0.50030064 </v>
    <v>       0.31507762       0.98219159       0.83302738 </v>
    <v>       0.90175571       0.80301538       0.12424376 </v>
    <v>       0.23451294       0.76604255       0.79065746 </v>
    <v>       0.11938162       0.23874371       0.13244245 </v>
    <v>       0.56886513       0.13557705       0.45505081 </v>
    <v>       0.23426633       0.46883248       0.78952332 </v>
    <v>       0.19789636       0.09842721       0.12373094 </v>
    <v>       0.00001922       0.26079870       0.00040007 </v>
    <v>       0.09929620       0.90094046       0.87711490 </v>
    <v>       0.80289743       0.90184265       0.87522089 </v>
    <v>       0.43312280       0.56754296       0.54387454 </v>
    <v>       0.53149813       0.76617893       0.78927568 </v>
    <v>       0.76513887       0.53069600       0.21050735 </v>
    <v>       0.13681379       0.56845723       0.54503361 </v>
    <v>       0.46898042       0.23467224       0.20963910 </v>
    <v>       0.64913284       0.64895484       0.50026552 </v>
    <v>       0.76597739       0.23394914       0.20912494 </v>
    <v>       0.66631742       0.68549264       0.83419044 </v>
    <v>       0.01850874       0.68504333       0.83354036 </v>
    <v>       0.09893653       0.19841567       0.87681325 </v>
    <v>       0.68535530       0.66617265       0.16567902 </v>
    <v>       0.56160226       0.89548670       0.77161425 </v>
    <v>       0.99963954       0.77178059       0.89479173 </v>
    <v>       0.89488496       0.33352588       0.22786143 </v>
    <v>       0.77144754       0.99942864       0.10518678 </v>
    <v>       0.10592703       0.43874517       0.56189606 </v>
    <v>       0.33357859       0.43886748       0.77206256 </v>
    <v>       0.00004570       0.77197853       0.10511512 </v>
    <v>       0.33358113       0.89516793       0.77182313 </v>
    <v>       0.22843925       0.99974974       0.10499738 </v>
    <v>       0.22769218       0.22754836       0.10550695 </v>
    <v>       0.10497779       0.43863490       0.77151563 </v>
    <v>       0.66790209       0.10513258       0.43790817 </v>
    <v>       0.00006699       0.22803651       0.10547304 </v>
    <v>       0.89486199       0.33327201       0.43832718 </v>
    <v>       0.33354587       0.89477868       0.56149855 </v>
    <v>       0.89471565       0.56103274       0.43828992 </v>
    <v>       0.10537040       0.66709381       0.77164668 </v>
    <v>       0.33375432       0.43838063       0.56208668 </v>
    <v>       0.89452606       0.56088599       0.22808763 </v>
    <v>       0.77256536       0.77270690       0.10534218 </v>
    <v>       0.66765425       0.56266940       0.43814029 </v>
    <v>       0.43903444       0.33331600       0.43871159 </v>
    <v>       0.10601279       0.66735158       0.56164940 </v>
    <v>       0.22845574       0.00058940       0.89487405 </v>
    <v>       0.66657228       0.56165633       0.22836123 </v>
    <v>       0.56149853       0.66686609       0.77198996 </v>
    <v>       0.99987949       0.22851408       0.89520799 </v>
    <v>       0.77276445       0.77281234       0.89450369 </v>
    <v>       0.66676104       0.10493668       0.22800227 </v>
    <v>       0.22801816       0.22811264       0.89521057 </v>
    <v>       0.43835039       0.33325187       0.22863568 </v>
    <v>       0.77236684       0.00040877       0.89457899 </v>
    <v>       0.56181870       0.89478902       0.56175798 </v>
    <v>       0.43865925       0.10549905       0.22850692 </v>
    <v>       0.43951841       0.10602589       0.43844766 </v>
   </varray>
  </structure>
  <varray name="forces" >
   <v>      -3.66835427      -0.33262049      -3.95619303 </v>
   <v>      -1.17260589       1.10735822       0.98230308 </v>
   <v>       5.37615330       0.91899097      -0.80851118 </v>
   <v>       0.98499258      -0.27815767      -0.08573386 </v>
   <v>       2.66825642       0.31049253      -0.35968113 </v>
   <v>      -0.00449726      -0.03422015       0.03907388 </v>
   <v>      -0.48992759      -0.26108076       0.08261344 </v>
   <v>       0.00072659      -0.00528938      -0.05473250 </v>
   <v>      -0.32496797      -0.08947242      -0.17104011 </v>
   <v>       0.47926949       0.53719317      -0.12699970 </v>
   <v>      -0.02610034      -0.03269689      -0.03694241 </v>
   <v>      -0.03934240       0.03802341       0.05430524 </v>
   <v>       0.04402972      -0.08907379      -0.00661224 </v>
   <v>       0.02629263      -0.03714943      -0.08775281 </v>
   <v>      -0.11107313      -0.04685267       0.04770340 </v>
   <v>       0.00488485      -0.03649527      -0.05039687 </v>
   <v>      -0.00336597      -0.00359046      -0.01681503 </v>
   <v>      -0.00801846       0.02642443       0.00973803 </v>
   <v>      -0.48052271       0.16102074       0.10751227 </v>
   <v>       0.03680839      -0.01661753      -0.05934418 </v>
   <v>      -0.08839467       0.51200244      -0.12993098 </v>
   <v>      -0.03624152       0.03089374       0.04711312 </v>
   <v>      -0.05236313      -0.03352402      -0.09028841 </v>
   <v>       0.00066010       0.06535698      -0.08071727 </v>
   <v>       0.15068153      -0.39471872      -0.10116383 </v>
   <v>       0.06385986      -0.03907598      -0.09556942 </v>
   <v>       0.07839546      -0.10379470       0.06384519 </v>
   <v>      -0.08426656      -0.02555208      -0.01055069 </v>
   <v>       0.02873573       0.09979883      -0.01692802 </v>
   <v>      -0.04739159      -0.03501824      -0.06836861 </v>
   <v>       0.00532897       0.01508818      -0.03526428 </v>
   <v>       0.06346798       0.09306881       0.03819245 </v>
   <v>       0.10481157      -0.07147912       0.10158815 </v>
   <v>      -0.08583390      -0.00421383       0.14493789 </v>
   <v>      -0.00609971       0.03529977      -0.13798736 </v>
   <v>      -0.05724544      -0.01045845      -0.15385822 </v>
   <v>      -0.01577133       0.11472239       0.72770579 </v>
   <v>       0.01695891       0.01715797      -0.04710230 </v>
   <v>       0.00500090       0.01132299      -0.07817553 </v>
   <v>       0.01652481      -0.03703832      -0.15241769 </v>
   <v>       0.36577256      -0.05560906       0.07353309 </v>
   <v>       0.02252214      -0.04781272      -0.14540150 </v>
   <v>      -1.73902595       3.88602599       0.01346320 </v>
   <v>      -1.30604741      -1.21684554       5.39700303 </v>
   <v>      -0.01099671      -0.01310086      -0.06900776 </v>
   <v>      -0.05139265      -0.00000014       0.20777626 </v>
   <v>      -0.00673424      -0.01613954      -0.08118770 </v>
   <v>       0.05282049      -0.16631293       0.70166911 </v>
   <v>      -0.04313234      -0.06170285      -0.40045114 </v>
   <v>       0.00161657      -0.00779312      -0.09397890 </v>
   <v>      -0.02281398      -0.11560642      -0.01810205 </v>
   <v>      -0.04874476       0.01834940       0.20368258 </v>
   <v>       0.11160331      -0.20407329      -0.01782717 </v>
   <v>       0.11747251      -0.06942355      -0.35919473 </v>
   <v>       0.00289917       0.01117555      -0.06668003 </v>
   <v>      -0.07292086       0.02192743       0.00550140 </v>
   <v>      -0.02622629       0.01420544       0.04467411 </v>
   <v>      -0.03371136       0.00592984      -0.09006497 </v>
   <v>      -0.02067461      -0.03270177       0.04911535 </v>
   <v>      -0.01139933      -0.00457658      -0.03238702 </v>
   <v>      -0.06394099       0.04743039      -0.02421013 </v>
   <v>       0.11929159       0.06944706       0.10513297 </v>
   <v>      -0.01296699      -0.02188173      -0.03993799 </v>
   <v>      -0.00376135      -0.00851809      -0.06449888 </v>
   <v>      -0.11134961      -0.09077398      -0.01813997 </v>
   <v>       0.09154964      -0.31393853      -0.14070851 </v>
   <v>      -2.28608445      -3.42545035       0.19938485 </v>
   <v>       0.49739728      -0.59103765      -0.19745674 </v>
   <v>       0.06462344       0.00345637      -0.07828126 </v>
   <v>      -0.12642646       0.05928217       0.04999979 </v>
   <v>       0.01644599      -0.02103169      -0.05219651 </v>
   <v>       2.88284524      -1.31999172      -3.46270685 </v>
   <v>       0.00619147       0.01954442      -0.04256261 </v>
   <v>      -0.41231183      -0.22412263       0.05082823 </v>
   <v>      -0.15208957       0.01201810       0.04266474 </v>
   <v>       0.00397807      -0.02166845      -0.01106159 </v>
   <v>       0.00824816       0.11571886      -0.17422639 </v>
   <v>      -0.29403314       0.59879168      -0.52905972 </v>
   <v>       0.37968686       0.05722951       0.14230088 </v>
   <v>      -0.00993606      -0.00785424       0.10879300 </v>
   <v>      -0.05043763       0.06046087       0.19068017 </v>
   <v>       0.38054574       0.00654216      -0.20312632 </v>
   <v>      -0.39782602      -0.55336834      -0.53319640 </v>
   <v>       0.05439136      -0.01279697       0.18080526 </v>
   <v>      -0.04594346       0.02494501      -0.20662298 </v>
   <v>       0.04995874       0.04234022       0.10510711 </v>
   <v>       0.03208460       0.04473425       0.12889204 </v>
   <v>      -0.02183448      -0.04081303      -0.20020512 </v>
   <v>       0.03964374      -0.24877886       0.19377863 </v>
   <v>      -0.00500906       0.04950035       0.10994776 </v>
   <v>       0.02182082      -0.05314482       0.05821480 </v>
   <v>       0.34031199      -0.05554832      -0.18402972 </v>
   <v>      -0.07548030      -0.05921582      -0.04039988 </v>
   <v>       0.14742461      -0.02700152      -0.14026211 </v>
   <v>       0.30709177       1.54909648      -0.68644508 </v>
   <v>      -0.03654939      -0.04995740       0.10440490 </v>
   <v>      -0.00988906      -0.01773991       0.37427548 </v>
   <v>      -0.71512906       0.64183487       0.26362122 </v>
   <v>      -0.19509940       0.19820307       0.16172084 </v>
   <v>       0.20096100      -0.01576479      -0.17684483 </v>
   <v>       0.09319791       0.06300601       0.04123732 </v>
   <v>      -0.05984856      -0.02978672       0.33585121 </v>
   <v>      -2.27625623      -0.20507944       2.64082655 </v>
   <v>       0.02077431       0.10168155       0.03796530 </v>
   <v>       0.34542765       0.53000575       0.91357982 </v>
   <v>      -0.03074467      -0.01072415       0.18647923 </v>
   <v>      -0.01736933      -0.02483283       0.07378201 </v>
   <v>      -0.00265638       0.04584336       0.18892757 </v>
   <v>      -0.17922066       0.28413862       0.11803774 </v>
   <v>       0.80133721      -1.25008513      -0.82239790 </v>
   <v>       0.02276917       0.02041393       0.12111209 </v>
   <v>       0.02985358       0.03330157       0.05053653 </v>
  </varray>
  <varray name="stress" >
   <v>     -13.93856854       2.23740147       0.32149031 </v>
   <v>       2.23740144     -21.94273431       0.20588161 </v>
   <v>       0.32149036       0.20588154     -13.94026694 </v>
  </varray>
  <energy>
   <i name="e_fr_energy">   -868.38383821 </i>
   <i name="e_wo_entrp">   -868.38383821 </i>
   <i name="e_0_energy">     -0.00000000 </i>
  </energy>
  <time name="totalsc">   53.18   53.43</time>
 </calculation>
 <calculation>
  <scstep>
   <time name="dav">    2.06    2.06</time>
   <time name="total">    2.17    2.18</time>
   <energy>
    <i name="alphaZ">    476.21782353 </i>
    <i name="ewald">  -2297.79076538 </i>
    <i name="hartreedc"> -30713.74635913 </i>
    <i name="XCdc">   1803.34191980 </i>
    <i name="pawpsdc">  91618.75521487 </i>
    <i name="pawaedc"> -91126.48114648 </i>
    <i name="eentropy">     -0.00000000 </i>
    <i name="bandstr">  -5590.12581971 </i>
    <i name="atom">  34968.35250874 </i>
    <i name="e_fr_energy">   -861.47662375 </i>
    <i name="e_wo_entrp">   -861.47662375 </i>
    <i name="e_0_energy">   -861.47662375 </i>
   </energy>
  </scstep>
  <scstep>
   <time name="dav">    2.30    2.30</time>
   <time name="total">    2.40    2.41</time>
   <energy>
    <i name="e_fr_energy">   -865.77796570 </i>
    <i name="e_wo_entrp">   -865.77796570 </i>
    <i name="e_0_energy">   -865.77796570 </i>
   </energy>
  </scstep>
  <scstep>
   <time name="dav">    2.22    2.23</time>
   <time name="total">    2.33    2.33</time>
   <energy>
    <i name="e_fr_energy">   -864.73537989 </i>
    <i name="e_wo_entrp">   -864.73537989 </i>
    <i name="e_0_energy">   -864.73537989 </i>
   </energy>
  </scstep>
  <scstep>
   <time name="dav">    2.15    2.16</time>
   <time name="total">    2.26    2.27</time>
   <energy>
    <i name="e_fr_energy">   -864.43912556 </i>
    <i name="e_wo_entrp">   -864.43912556 </i>
    <i name="e_0_energy">   -864.43912556 </i>
   </energy>
  </scstep>
  <scstep>
   <time name="dav">    2.41    2.41</time>
   <time name="total">    2.51    2.52</time>
   <energy>
    <i name="e_fr_energy">   -864.40116282 </i>
    <i name="e_wo_entrp">   -864.40116282 </i>
    <i name="e_0_energy">   -864.40116282 </i>
   </energy>
  </scstep>
  <scstep>
   <time name="dav">    2.15    2.15</time>
   <time name="total">    2.25    2.26</time>
   <energy>
    <i name="e_fr_energy">   -864.38981706 </i>
    <i name="e_wo_entrp">   -864.38981706 </i>
    <i name="e_0_energy">   -864.38981706 </i>
   </energy>
  </scstep>
  <scstep>
   <time name="dav">    2.16    2.17</time>
   <time name="total">    2.27    2.28</time>
   <energy>
    <i name="e_fr_energy">   -864.38072589 </i>
    <i name="e_wo_entrp">   -864.38072589 </i>
    <i name="e_0_energy">   -864.38072589 </i>
   </energy>
  </scstep>
  <scstep>
   <time name="dav">    2.22    2.23</time>
   <time name="total">    2.33    2.34</time>
   <energy>
    <i name="e_fr_energy">   -864.37368850 </i>
    <i name="e_wo_entrp">   -864.37368850 </i>
    <i name="e_0_energy">   -864.37368850 </i>
   </energy>
  </scstep>
  <scstep>
   <time name="dav">    2.17    2.17</time>
   <time name="total">    2.27    2.28</time>
   <energy>
    <i name="e_fr_energy">   -864.37376844 </i>
    <i name="e_wo_entrp">   -864.37376844 </i>
    <i name="e_0_energy">   -864.37376844 </i>
   </energy>
  </scstep>
  <scstep>
   <time name="dav">    2.15    2.15</time>
   <time name="total">    2.25    2.26</time>
   <energy>
    <i name="e_fr_energy">   -864.37435126 </i>
    <i name="e_wo_entrp">   -864.37435126 </i>
    <i name="e_0_energy">   -864.37435126 </i>
   </energy>
  </scstep>
  <scstep>
   <time name="dav">    2.14    2.15</time>
   <time name="total">    2.25    2.26</time>
   <energy>
    <i name="e_fr_energy">   -864.37477592 </i>
    <i name="e_wo_entrp">   -864.37477592 </i>
    <i name="e_0_energy">   -864.37477592 </i>
   </energy>
  </scstep>
  <scstep>
   <time name="dav">    2.24    2.24</time>
   <time name="total">    2.36    2.37</time>
   <energy>
    <i name="e_fr_energy">   -864.37552582 </i>
    <i name="e_wo_entrp">   -864.37552582 </i>
    <i name="e_0_energy">   -864.37552582 </i>
   </energy>
  </scstep>
  <scstep>
   <time name="dav">    2.15    2.16</time>
   <time name="total">    2.27    2.28</time>
   <energy>
    <i name="e_fr_energy">   -864.37574090 </i>
    <i name="e_wo_entrp">   -864.37574090 </i>
    <i name="e_0_energy">   -864.37574090 </i>
   </energy>
  </scstep>
  <scstep>
   <time name="dav">    2.16    2.17</time>
   <time name="total">    2.27    2.28</time>
   <energy>
    <i name="e_fr_energy">   -864.37583274 </i>
    <i name="e_wo_entrp">   -864.37583274 </i>
    <i name="e_0_energy">   -864.37583274 </i>
   </energy>
  </scstep>
  <scstep>
   <time name="dav">    2.05    2.05</time>
   <time name="total">    2.16    2.17</time>
   <energy>
    <i name="e_fr_energy">   -864.37596342 </i>
    <i name="e_wo_entrp">   -864.37596342 </i>
    <i name="e_0_energy">   -864.37596342 </i>
   </energy>
  </scstep>
  <scstep>
   <time name="dav">    2.04    2.04</time>
   <time name="total">    2.15    2.16</time>
   <energy>
    <i name="e_fr_energy">   -864.37608412 </i>
    <i name="e_wo_entrp">   -864.37608412 </i>
    <i name="e_0_energy">   -864.37608412 </i>
   </energy>
  </scstep>
  <scstep>
   <time name="dav">    2.08    2.09</time>
   <time name="total">    2.19    2.20</time>
   <energy>
    <i name="e_fr_energy">   -864.37610337 </i>
    <i name="e_wo_entrp">   -864.37610337 </i>
    <i name="e_0_energy">   -864.37610337 </i>
   </energy>
  </scstep>
  <scstep>
   <time name="dav">    1.59    1.59</time>
   <time name="total">    1.70    1.70</time>
   <energy>
    <i name="e_fr_energy">   -864.37610948 </i>
    <i name="e_wo_entrp">   -864.37610948 </i>
    <i name="e_0_energy">   -864.37610948 </i>
   </energy>
  </scstep>
  <scstep>
   <time name="dav">    1.60    1.61</time>
   <time name="total">    1.71    1.72</time>
   <energy>
    <i name="e_fr_energy">   -864.37612143 </i>
    <i name="e_wo_entrp">   -864.37612143 </i>
    <i name="e_0_energy">   -864.37612143 </i>
   </energy>
  </scstep>
  <scstep>
   <time name="dav">    1.69    1.69</time>
   <time name="total">    1.80    1.80</time>
   <energy>
    <i name="e_fr_energy">   -864.37612680 </i>
    <i name="e_wo_entrp">   -864.37612680 </i>
    <i name="e_0_energy">   -864.37612680 </i>
   </energy>
  </scstep>
  <scstep>
   <time name="dav">    1.55    1.56</time>
   <time name="total">    1.66    1.67</time>
   <energy>
    <i name="e_fr_energy">   -864.37612853 </i>
    <i name="e_wo_entrp">   -864.37612853 </i>
    <i name="e_0_energy">   -864.37612853 </i>
   </energy>
  </scstep>
  <scstep>
   <time name="dav">    1.65    1.65</time>
   <time name="total">    1.70    1.71</time>
   <energy>
    <i name="alphaZ">    476.21782353 </i>
    <i name="ewald">  -2297.79076538 </i>
    <i name="hartreedc"> -30753.20906271 </i>
    <i name="XCdc">   1805.12598372 </i>
    <i name="pawpsdc">  95391.63907331 </i>
    <i name="pawaedc"> -94900.04636412 </i>
    <i name="eentropy">     -0.00000000 </i>
    <i name="bandstr">  -5554.66532606 </i>
    <i name="atom">  34968.35250874 </i>
    <i name="e_fr_energy">   -864.37612897 </i>
    <i name="e_wo_entrp">   -864.37612897 </i>
    <i name="e_0_energy">   -864.37612897 </i>
   </energy>
  </scstep>
  <structure>
   <crystal>
    <varray name="basis" >
     <v>      13.72957181      -0.00462456      -0.00141144 </v>
     <v>      -6.86873914      11.89091482       0.00181973 </v>
     <v>      -0.00151065       0.00130727      14.89037843 </v>
    </varray>
    <i name="volume">   2430.48799023 </i>
    <varray name="rec_basis" >
     <v>       0.07284966       0.04208131       0.00000370 </v>
     <v>       0.00002833       0.08411419      -0.00000738 </v>
     <v>       0.00000690      -0.00000629       0.06715746 </v>
    </varray>
   </crystal>
   <varray name="positions" >
    <v>       0.54869850       0.66560440       0.54928503 </v>
    <v>       0.70156950       0.66963675       0.66499787 </v>
    <v>       0.71923591       0.70026237       0.59396687 </v>
    <v>       0.68015625       0.57629683       0.67008281 </v>
    <v>       0.74459941       0.72274945       0.71733872 </v>
    <v>       0.01858381       0.33401889       0.83412688 </v>
    <v>       0.21184449       0.42601614       0.53551228 </v>
    <v>       0.54683249       0.09365713       0.20237800 </v>
    <v>       0.87900997       0.76023860       0.86634814 </v>
    <v>       0.45585023       0.54953662       0.79857924 </v>
    <v>       0.12038891       0.87939944       0.13125178 </v>
    <v>       0.09350727       0.54720411       0.79771496 </v>
    <v>       0.42905828       0.21414636       0.46640040 </v>
    <v>       0.76016188       0.87994663       0.13281639 </v>
    <v>       0.21329968       0.78683977       0.53394521 </v>
    <v>       0.90023028       0.09900305       0.12371659 </v>
    <v>       0.23935291       0.11998246       0.86776019 </v>
    <v>       0.86360000       0.43162328       0.45680069 </v>
    <v>       0.43106752       0.86491994       0.54404839 </v>
    <v>       0.98239014       0.31523721       0.16674952 </v>
    <v>       0.64890004       0.00161171       0.49913062 </v>
    <v>       0.00037432       0.64733377       0.49990791 </v>
    <v>       0.33272915       0.31439061       0.16675330 </v>
    <v>       0.98112141       0.66670722       0.16632222 </v>
    <v>       0.35212020       0.35014004       0.50017333 </v>
    <v>       0.68399677       0.01772933       0.16535375 </v>
    <v>       0.66675859       0.98144430       0.83372993 </v>
    <v>       0.00082190       0.35325030       0.49921828 </v>
    <v>       0.78792408       0.21336622       0.46556574 </v>
    <v>       0.33349986       0.01835334       0.16646159 </v>
    <v>       0.90609473       0.45299357       0.20041318 </v>
    <v>       0.31537155       0.33431982       0.83426760 </v>
    <v>       0.45366047       0.90667620       0.79892141 </v>
    <v>       0.07297813       0.66871342       0.66704590 </v>
    <v>       0.66883417       0.07263099       0.33246633 </v>
    <v>       0.99817653       0.73867950       0.99945832 </v>
    <v>       0.59502348       0.92929202       0.66900441 </v>
    <v>       0.92784747       0.59335314       0.33301751 </v>
    <v>       0.26048447       0.26027274       0.00015715 </v>
    <v>       0.40494833       0.33158209       0.33326594 </v>
    <v>       0.78835057       0.57348027       0.46527918 </v>
    <v>       0.73960300       0.99861939       0.99934722 </v>
    <v>       0.57523880       0.80233555       0.53557772 </v>
    <v>       0.58796699       0.66155609       0.68462746 </v>
    <v>       0.26166849       0.00087827       0.99966388 </v>
    <v>       0.07153628       0.40445473       0.66731207 </v>
    <v>       0.40496970       0.07334756       0.33331183 </v>
    <v>       0.33373305       0.40488644       0.66942997 </v>
    <v>       0.74102456       0.74132741       0.99860680 </v>
    <v>       0.54625062       0.45353209       0.20218938 </v>
    <v>       0.87974470       0.12016773       0.86795453 </v>
    <v>       0.33277243       0.92712054       0.66726559 </v>
    <v>       0.56811126       0.43262773       0.45567696 </v>
    <v>       0.66814500       0.59592378       0.33202153 </v>
    <v>       0.92710978       0.33370230       0.33287547 </v>
    <v>       0.35316374       0.00084230       0.50031843 </v>
    <v>       0.31501430       0.98224918       0.83317211 </v>
    <v>       0.90164925       0.80303943       0.12395195 </v>
    <v>       0.23437390       0.76590980       0.79081659 </v>
    <v>       0.11933226       0.23872514       0.13233752 </v>
    <v>       0.56873670       0.13576944       0.45497233 </v>
    <v>       0.23482658       0.46911442       0.78986396 </v>
    <v>       0.19780636       0.09833841       0.12360155 </v>
    <v>      -0.00001130       0.26076415       0.00019110 </v>
    <v>       0.09872058       0.90057196       0.87705612 </v>
    <v>       0.80258183       0.90056889       0.87476514 </v>
    <v>       0.41813443       0.55363966       0.54452080 </v>
    <v>       0.53204630       0.76378131       0.78863630 </v>
    <v>       0.76537299       0.53071014       0.21025375 </v>
    <v>       0.13648983       0.56869760       0.54519554 </v>
    <v>       0.46899551       0.23458694       0.20947000 </v>
    <v>       0.65658413       0.64360363       0.48904821 </v>
    <v>       0.76603882       0.23402847       0.20898704 </v>
    <v>       0.66441339       0.68458260       0.83435504 </v>
    <v>       0.01799864       0.68509187       0.83367853 </v>
    <v>       0.09890652       0.19832776       0.87677742 </v>
    <v>       0.68561918       0.66664230       0.16511452 </v>
    <v>       0.56178441       0.89791632       0.76989989 </v>
    <v>       0.00109014       0.77201329       0.89525287 </v>
    <v>       0.89483412       0.33349396       0.22821390 </v>
    <v>       0.77139305       0.99967384       0.10580453 </v>
    <v>       0.10727769       0.43877231       0.56123808 </v>
    <v>       0.33105695       0.43662162       0.77033511 </v>
    <v>       0.00021091       0.77192661       0.10570093 </v>
    <v>       0.33347027       0.89526917       0.77115368 </v>
    <v>       0.22870080       0.99992158       0.10533792 </v>
    <v>       0.22789578       0.22772988       0.10592454 </v>
    <v>       0.10481817       0.43846933       0.77086700 </v>
    <v>       0.66753640       0.10412304       0.43853608 </v>
    <v>       0.00014990       0.22823733       0.10582924 </v>
    <v>       0.89483080       0.33305636       0.43851581 </v>
    <v>       0.33462908       0.89455380       0.56090245 </v>
    <v>       0.89433016       0.56079236       0.43815903 </v>
    <v>       0.10583368       0.66698450       0.77119231 </v>
    <v>       0.33797830       0.44466736       0.55986233 </v>
    <v>       0.89429621       0.56068318       0.22842589 </v>
    <v>       0.77249466       0.77263477       0.10655478 </v>
    <v>       0.66644400       0.56527283       0.43899396 </v>
    <v>       0.43875117       0.33411996       0.43923541 </v>
    <v>       0.10668702       0.66728795       0.56107652 </v>
    <v>       0.22891120       0.00084518       0.89500766 </v>
    <v>       0.66630153       0.56153525       0.22944933 </v>
    <v>       0.55308285       0.66602984       0.78054516 </v>
    <v>       0.00015894       0.22892671       0.89533097 </v>
    <v>       0.77505457       0.77496319       0.89746351 </v>
    <v>       0.66663125       0.10489306       0.22860642 </v>
    <v>       0.22790672       0.22801182       0.89544962 </v>
    <v>       0.43843416       0.33343783       0.22924777 </v>
    <v>       0.77231384       0.00156148       0.89496127 </v>
    <v>       0.56209701       0.88971770       0.55909417 </v>
    <v>       0.43878074       0.10558188       0.22889931 </v>
    <v>       0.43969094       0.10616105       0.43861139 </v>
   </varray>
  </structure>
  <varray name="forces" >
   <v>       2.41365689       0.94183858       0.30303431 </v>
   <v>      -1.44425425      -2.78124527      -1.55367327 </v>
   <v>       0.91533744       0.03731936       1.40235858 </v>
   <v>      -0.00695491       1.98603620      -0.03040307 </v>
   <v>       1.91861860       1.33822625       1.26669751 </v>
   <v>       0.02235484       0.19965903      -0.15205074 </v>
   <v>       1.69945664      -0.16736282      -0.09048206 </v>
   <v>       0.03854747      -0.03077110       0.00213787 </v>
   <v>       1.23557283       0.03467915       0.06564021 </v>
   <v>      -3.04220395      -5.36196633       1.00768429 </v>
   <v>       0.09907747       0.16763644       0.02384054 </v>
   <v>       0.17681545      -0.23699909       0.00726089 </v>
   <v>      -0.23095330       0.34290622      -0.08806005 </v>
   <v>      -0.13757439       0.19394128       0.04993723 </v>
   <v>       0.27406530       0.39131756      -0.01210791 </v>
   <v>       0.06524958       0.08069479       0.02098551 </v>
   <v>      -0.00551357      -0.00169673      -0.00925375 </v>
   <v>       0.19472411      -0.20294967      -0.04264795 </v>
   <v>       1.84918244      -0.21176941      -0.06420284 </v>
   <v>      -0.18427922       0.12695819       0.17959986 </v>
   <v>       0.00276473      -1.20730321       1.00153613 </v>
   <v>       0.13485057      -0.00349650       0.01239765 </v>
   <v>       0.28993188       0.19821610       0.28156893 </v>
   <v>       0.02566961      -0.32748378       0.25352726 </v>
   <v>      -1.05964138       0.76192857       0.89238102 </v>
   <v>      -0.37034576       0.15790684       0.32978181 </v>
   <v>      -0.22269667      -0.15236485      -0.12862862 </v>
   <v>       0.23712200       0.15772164       0.19765880 </v>
   <v>      -0.19410144      -0.35721983      -0.06003531 </v>
   <v>       0.27547678       0.12967660       0.23254447 </v>
   <v>       0.06428432      -0.06168889       0.00541010 </v>
   <v>      -0.04608734      -0.15948785       0.15678678 </v>
   <v>      -0.53506844      -0.06116091       0.06313008 </v>
   <v>       0.07097580      -0.00752064      -0.62116472 </v>
   <v>       0.03155588      -0.08704663       0.53997328 </v>
   <v>       0.01465057      -0.00037409       0.74113855 </v>
   <v>       0.08968292      -0.10056160      -3.06707248 </v>
   <v>       0.08746847       0.04793446       0.03486684 </v>
   <v>      -0.01626384      -0.01762337       0.36930739 </v>
   <v>      -0.10635910       0.03902406       0.56341839 </v>
   <v>      -0.95324716      -0.14189608      -0.15485864 </v>
   <v>      -0.01698138       0.00445671       0.71464010 </v>
   <v>      10.78774741     -15.61777308      -4.39993943 </v>
   <v>       2.44293177      -0.00097771      -9.44260524 </v>
   <v>      -0.00007742      -0.00815842       0.31578759 </v>
   <v>       0.02459586       0.03592297      -0.86900856 </v>
   <v>       0.00349176      -0.06492265       0.28699882 </v>
   <v>       0.09888884       0.10360637      -3.03162790 </v>
   <v>      -0.06726224      -0.10144009       2.45852002 </v>
   <v>      -0.03361809       0.01047479      -0.00890037 </v>
   <v>       0.25272989       0.48151292      -0.03278892 </v>
   <v>       0.02351913      -0.00893486      -0.86753496 </v>
   <v>       0.03050826       0.42355237      -0.04672731 </v>
   <v>      -0.03852940      -0.02884156       0.42930006 </v>
   <v>       0.06093663      -0.00571098       0.24085675 </v>
   <v>       0.02078210      -0.13647686       0.05920894 </v>
   <v>       0.18953540      -0.11220478      -0.14282555 </v>
   <v>       0.10884956       0.03351304       0.01114667 </v>
   <v>       0.15375362       0.17148625       0.00106127 </v>
   <v>       0.02777646       0.00479432       0.03161693 </v>
   <v>       0.24434253      -0.03445731      -0.05330535 </v>
   <v>      -0.50582452       0.08297695       0.01426895 </v>
   <v>      -0.03847046       0.03429838       0.01288699 </v>
   <v>      -0.00010062      -0.01082116       0.30378738 </v>
   <v>       0.29162494       0.52485948      -0.00317900 </v>
   <v>      -0.64540117       1.29170321       0.03599986 </v>
   <v>       4.44762777      15.87579022      -2.85546237 </v>
   <v>      -3.61521947       4.54904198       0.42226431 </v>
   <v>      -0.24034663       0.03477007      -0.02549570 </v>
   <v>       0.40688950      -0.39354088      -0.03471854 </v>
   <v>      -0.07823374       0.07115669       0.01923866 </v>
   <v>     -10.92962536      10.64817819       9.21283909 </v>
   <v>      -0.02371741      -0.11878627       0.01252230 </v>
   <v>       0.62474418       0.95466458       1.69880040 </v>
   <v>       0.46395279      -0.21449211      -0.36704026 </v>
   <v>      -0.05023882      -0.00433587      -0.01473668 </v>
   <v>      -0.06503622      -0.64069255       0.47666632 </v>
   <v>       0.51691024      -1.23916228       1.88262629 </v>
   <v>      -1.05759672      -0.16753513      -0.41066133 </v>
   <v>      -0.00087783       0.07490443      -0.24990742 </v>
   <v>       0.15108485      -0.10995138      -0.55349906 </v>
   <v>      -1.40205999      -0.16267198       0.53937088 </v>
   <v>       0.85056921       1.22030092       1.91128378 </v>
   <v>      -0.12509542      -0.01924111      -0.50080396 </v>
   <v>       0.06100490      -0.05929454       0.60148617 </v>
   <v>      -0.13709645      -0.09388195      -0.29665844 </v>
   <v>      -0.05812014      -0.11623232      -0.37649648 </v>
   <v>       0.01239103       0.14948297       0.59317143 </v>
   <v>      -0.29781901       1.11209007      -0.60998630 </v>
   <v>       0.00911259      -0.09885479      -0.29786661 </v>
   <v>      -0.17157861       0.23428092      -0.13641358 </v>
   <v>      -1.35196537       0.36639592       0.50110599 </v>
   <v>       0.21079996       0.04954269       0.02726013 </v>
   <v>      -0.44224905       0.06755994       0.40657467 </v>
   <v>      -4.96759932     -17.45680710       3.45614724 </v>
   <v>       0.06680201       0.11613274      -0.19990157 </v>
   <v>       0.07997167      -0.01404896      -1.04996563 </v>
   <v>       8.85439873     -10.58711645      -8.64638844 </v>
   <v>       0.77192085      -0.67250571      -0.50483455 </v>
   <v>      -0.72016254       0.02334554       0.41403208 </v>
   <v>      -0.29844917      -0.16553347      -0.11683283 </v>
   <v>       0.25938579      -0.06002854      -0.99142909 </v>
   <v>       2.61066186       0.69723652       4.84815298 </v>
   <v>      -0.03544509      -0.28016288      -0.10027661 </v>
   <v>      -0.94209631      -1.24881467      -1.98104837 </v>
   <v>       0.02033178       0.10276267      -0.51487482 </v>
   <v>       0.07240451       0.11015711      -0.20952026 </v>
   <v>       0.07463610      -0.09651342      -0.55195632 </v>
   <v>       0.54373823      -0.82058849      -0.31078890 </v>
   <v>     -11.02103807      15.68976709       5.36102813 </v>
   <v>      -0.06612177      -0.02826467      -0.30129624 </v>
   <v>      -0.09884674      -0.00457471      -0.12331111 </v>
  </varray>
  <varray name="stress" >
   <v>     -13.21745416      -9.17039961     -11.91181631 </v>
   <v>      -9.17039963       7.27117660       5.49176361 </v>
   <v>     -11.91181631       5.49176358     -11.11499176 </v>
  </varray>
  <energy>
   <i name="e_fr_energy">   -864.37612897 </i>
   <i name="e_wo_entrp">   -864.37612897 </i>
   <i name="e_0_energy">     -0.00000000 </i>
  </energy>
  <time name="totalsc">   49.00   49.22</time>
 </calculation>
 <calculation>
  <scstep>
   <time name="dav">    1.94    1.95</time>
   <time name="total">    2.05    2.06</time>
   <energy>
    <i name="alphaZ">    476.21782353 </i>
    <i name="ewald">  -2326.98374057 </i>
    <i name="hartreedc"> -30739.03959861 </i>
    <i name="XCdc">   1804.80442153 </i>
    <i name="pawpsdc">  95391.60193213 </i>
    <i name="pawaedc"> -94900.00920882 </i>
    <i name="eentropy">     -0.00000000 </i>
    <i name="bandstr">  -5543.97992771 </i>
    <i name="atom">  34968.35250874 </i>
    <i name="e_fr_energy">   -869.03578979 </i>
    <i name="e_wo_entrp">   -869.03578979 </i>
    <i name="e_0_energy">   -869.03578979 </i>
   </energy>
  </scstep>
  <scstep>
   <time name="dav">    2.21    2.22</time>
   <time name="total">    2.32    2.33</time>
   <energy>
    <i name="e_fr_energy">   -870.56125963 </i>
    <i name="e_wo_entrp">   -870.56125963 </i>
    <i name="e_0_energy">   -870.56125963 </i>
   </energy>
  </scstep>
  <scstep>
   <time name="dav">    2.17    2.18</time>
   <time name="total">    2.28    2.29</time>
   <energy>
    <i name="e_fr_energy">   -870.15576867 </i>
    <i name="e_wo_entrp">   -870.15576867 </i>
    <i name="e_0_energy">   -870.15576867 </i>
   </energy>
  </scstep>
  <scstep>
   <time name="dav">    2.15    2.16</time>
   <time name="total">    2.26    2.27</time>
   <energy>
    <i name="e_fr_energy">   -870.02264810 </i>
    <i name="e_wo_entrp">   -870.02264810 </i>
    <i name="e_0_energy">   -870.02264810 </i>
   </energy>
  </scstep>
  <scstep>
   <time name="dav">    2.18    2.19</time>
   <time name="total">    2.50    2.51</time>
   <energy>
    <i name="e_fr_energy">   -870.02288024 </i>
    <i name="e_wo_entrp">   -870.02288024 </i>
    <i name="e_0_energy">   -870.02288024 </i>
   </energy>
  </scstep>
  <scstep>
   <time name="dav">    2.16    2.17</time>
   <time name="total">    2.27    2.28</time>
   <energy>
    <i name="e_fr_energy">   -870.01535513 </i>
    <i name="e_wo_entrp">   -870.01535513 </i>
    <i name="e_0_energy">   -870.01535513 </i>
   </energy>
  </scstep>
  <scstep>
   <time name="dav">    2.18    2.19</time>
   <time name="total">    2.29    2.30</time>
   <energy>
    <i name="e_fr_energy">   -870.01215683 </i>
    <i name="e_wo_entrp">   -870.01215683 </i>
    <i name="e_0_energy">   -870.01215683 </i>
   </energy>
  </scstep>
  <scstep>
   <time name="dav">    2.41    2.42</time>
   <time name="total">    2.52    2.53</time>
   <energy>
    <i name="e_fr_energy">   -870.01090897 </i>
    <i name="e_wo_entrp">   -870.01090897 </i>
    <i name="e_0_energy">   -870.01090897 </i>
   </energy>
  </scstep>
  <scstep>
   <time name="dav">    2.20    2.21</time>
   <time name="total">    2.31    2.32</time>
   <energy>
    <i name="e_fr_energy">   -870.01216032 </i>
    <i name="e_wo_entrp">   -870.01216032 </i>
    <i name="e_0_energy">   -870.01216032 </i>
   </energy>
  </scstep>
  <scstep>
   <time name="dav">    2.35    2.35</time>
   <time name="total">    2.46    2.47</time>
   <energy>
    <i name="e_fr_energy">   -870.01262842 </i>
    <i name="e_wo_entrp">   -870.01262842 </i>
    <i name="e_0_energy">   -870.01262842 </i>
   </energy>
  </scstep>
  <scstep>
   <time name="dav">    2.10    2.11</time>
   <time name="total">    2.37    2.38</time>
   <energy>
    <i name="e_fr_energy">   -870.01310523 </i>
    <i name="e_wo_entrp">   -870.01310523 </i>
    <i name="e_0_energy">   -870.01310523 </i>
   </energy>
  </scstep>
  <scstep>
   <time name="dav">    2.15    2.16</time>
   <time name="total">    2.26    2.27</time>
   <energy>
    <i name="e_fr_energy">   -870.01373892 </i>
    <i name="e_wo_entrp">   -870.01373892 </i>
    <i name="e_0_energy">   -870.01373892 </i>
   </energy>
  </scstep>
  <scstep>
   <time name="dav">    2.16    2.17</time>
   <time name="total">    2.27    2.28</time>
   <energy>
    <i name="e_fr_energy">   -870.01389118 </i>
    <i name="e_wo_entrp">   -870.01389118 </i>
    <i name="e_0_energy">   -870.01389118 </i>
   </energy>
  </scstep>
  <scstep>
   <time name="dav">    2.30    2.31</time>
   <time name="total">    2.41    2.42</time>
   <energy>
    <i name="e_fr_energy">   -870.01392011 </i>
    <i name="e_wo_entrp">   -870.01392011 </i>
    <i name="e_0_energy">   -870.01392011 </i>
   </energy>
  </scstep>
  <scstep>
   <time name="dav">    2.06    2.06</time>
   <time name="total">    2.16    2.17</time>
   <energy>
    <i name="e_fr_energy">   -870.01399630 </i>
    <i name="e_wo_entrp">   -870.01399630 </i>
    <i name="e_0_energy">   -870.01399630 </i>
   </energy>
  </scstep>
  <scstep>
   <time name="dav">    2.11    2.12</time>
   <time name="total">    2.22    2.23</time>
   <energy>
    <i name="e_fr_energy">   -870.01405245 </i>
    <i name="e_wo_entrp">   -870.01405245 </i>
    <i name="e_0_energy">   -870.01405245 </i>
   </energy>
  </scstep>
  <scstep>
   <time name="dav">    2.05    2.06</time>
   <time name="total">    2.16    2.17</time>
   <energy>
    <i name="e_fr_energy">   -870.01407044 </i>
    <i name="e_wo_entrp">   -870.01407044 </i>
    <i name="e_0_energy">   -870.01407044 </i>
   </energy>
  </scstep>
  <scstep>
   <time name="dav">    1.60    1.60</time>
   <time name="total">    1.71    1.71</time>
   <energy>
    <i name="e_fr_energy">   -870.01408216 </i>
    <i name="e_wo_entrp">   -870.01408216 </i>
    <i name="e_0_energy">   -870.01408216 </i>
   </energy>
  </scstep>
  <scstep>
   <time name="dav">    1.77    1.77</time>
   <time name="total">    1.88    1.89</time>
   <energy>
    <i name="e_fr_energy">   -870.01409255 </i>
    <i name="e_wo_entrp">   -870.01409255 </i>
    <i name="e_0_energy">   -870.01409255 </i>
   </energy>
  </scstep>
  <scstep>
   <time name="dav">    1.55    1.55</time>
   <time name="total">    1.66    1.67</time>
   <energy>
    <i name="e_fr_energy">   -870.01409612 </i>
    <i name="e_wo_entrp">   -870.01409612 </i>
    <i name="e_0_energy">   -870.01409612 </i>
   </energy>
  </scstep>
  <scstep>
   <time name="dav">    1.58    1.58</time>
   <time name="total">    1.69    1.70</time>
   <energy>
    <i name="e_fr_energy">   -870.01409784 </i>
    <i name="e_wo_entrp">   -870.01409784 </i>
    <i name="e_0_energy">   -870.01409784 </i>
   </energy>
  </scstep>
  <scstep>
   <time name="dav">    1.64    1.64</time>
   <time name="total">    1.69    1.70</time>
   <energy>
    <i name="alphaZ">    476.21782353 </i>
    <i name="ewald">  -2326.98374057 </i>
    <i name="hartreedc"> -30723.78417976 </i>
    <i name="XCdc">   1804.01558161 </i>
    <i name="pawpsdc">  92453.98018838 </i>
    <i name="pawaedc"> -91961.83983226 </i>
    <i name="eentropy">     -0.00000000 </i>
    <i name="bandstr">  -5559.97244809 </i>
[...]
       <r>   -18.3260     0.0000   144.0000 </r>
       <r>   -18.2189     0.0000   144.0000 </r>
       <r>   -18.1117     0.0000   144.0000 </r>
       <r>   -18.0045     0.0000   144.0000 </r>
       <r>   -17.8974     0.0000   144.0000 </r>
       <r>   -17.7902     0.0000   144.0000 </r>
       <r>   -17.6830     0.0000   144.0000 </r>
       <r>   -17.5759     0.0000   144.0000 </r>
       <r>   -17.4687     0.0000   144.0000 </r>
       <r>   -17.3615     0.0000   144.0000 </r>
       <r>   -17.2543     0.0000   144.0000 </r>
       <r>   -17.1472     0.0000   144.0000 </r>
       <r>   -17.0400     0.0000   144.0000 </r>
       <r>   -16.9328     0.0000   144.0000 </r>
       <r>   -16.8257     0.0000   144.0000 </r>
       <r>   -16.7185     0.0000   144.0000 </r>
       <r>   -16.6113     0.0000   144.0000 </r>
       <r>   -16.5042     0.0000   144.0000 </r>
       <r>   -16.3970     0.0000   144.0000 </r>
       <r>   -16.2898     0.0000   144.0000 </r>
       <r>   -16.1827     0.0000   144.0000 </r>
       <r>   -16.0755     0.0000   144.0000 </r>
       <r>   -15.9683     0.0000   144.0000 </r>
       <r>   -15.8611     0.0000   144.0000 </r>
       <r>   -15.7540     0.0000   144.0000 </r>
       <r>   -15.6468     0.0000   144.0000 </r>
       <r>   -15.5396     0.0000   144.0000 </r>
       <r>   -15.4325     0.0000   144.0000 </r>
       <r>   -15.3253     0.0000   144.0000 </r>
       <r>   -15.2181     0.0000   144.0000 </r>
       <r>   -15.1110     0.0000   144.0000 </r>
       <r>   -15.0038     0.0000   144.0000 </r>
       <r>   -14.8966     0.0000   144.0000 </r>
       <r>   -14.7895     0.0000   144.0000 </r>
       <r>   -14.6823     0.0000   144.0000 </r>
       <r>   -14.5751     0.0000   144.0000 </r>
       <r>   -14.4679     0.0000   144.0000 </r>
       <r>   -14.3608     0.0000   144.0000 </r>
       <r>   -14.2536     0.0000   144.0000 </r>
       <r>   -14.1464     0.0000   144.0000 </r>
       <r>   -14.0393     0.0000   144.0000 </r>
       <r>   -13.9321     0.0000   144.0000 </r>
       <r>   -13.8249     0.0000   144.0000 </r>
       <r>   -13.7178     0.0000   144.0000 </r>
       <r>   -13.6106     0.0142   144.0015 </r>
       <r>   -13.5034     0.8991   144.0979 </r>
       <r>   -13.3963     7.3816   144.8890 </r>
       <r>   -13.2891     8.7918   145.8312 </r>
       <r>   -13.1819     1.5395   145.9962 </r>
       <r>   -13.0747     0.0357   146.0000 </r>
       <r>   -12.9676     0.0001   146.0000 </r>
       <r>   -12.8604     0.0000   146.0000 </r>
       <r>   -12.7532     0.0000   146.0000 </r>
       <r>   -12.6461     0.0000   146.0000 </r>
       <r>   -12.5389     0.0001   146.0000 </r>
       <r>   -12.4317     0.0343   146.0037 </r>
       <r>   -12.3246     1.5051   146.1650 </r>
       <r>   -12.2174     8.7352   147.1011 </r>
       <r>   -12.1102     7.4501   147.8996 </r>
       <r>   -12.0031     0.9226   147.9984 </r>
       <r>   -11.8959     0.0671   148.0056 </r>
       <r>   -11.7887     1.9335   148.2128 </r>
       <r>   -11.6816    10.5955   149.3483 </r>
       <r>   -11.5744    15.6891   151.0297 </r>
       <r>   -11.4672    18.4540   153.0074 </r>
       <r>   -11.3600    26.8248   155.8822 </r>
       <r>   -11.2529    25.2190   158.5849 </r>
       <r>   -11.1457    12.8616   159.9633 </r>
       <r>   -11.0385    11.4144   161.1866 </r>
       <r>   -10.9314    19.2520   163.2498 </r>
       <r>   -10.8242     7.2048   164.0219 </r>
       <r>   -10.7170    10.5811   165.1559 </r>
       <r>   -10.6099    37.2185   169.1446 </r>
       <r>   -10.5027    45.5501   174.0261 </r>
       <r>   -10.3955    35.3074   177.8100 </r>
       <r>   -10.2884    18.4879   179.7913 </r>
       <r>   -10.1812    11.1580   180.9871 </r>
       <r>   -10.0740     9.0251   181.9543 </r>
       <r>    -9.9668    10.2397   183.0517 </r>
       <r>    -9.8597    25.2976   185.7628 </r>
       <r>    -9.7525    26.9595   188.6521 </r>
       <r>    -9.6453    28.4168   191.6975 </r>
       <r>    -9.5382    29.0007   194.8054 </r>
       <r>    -9.4310    24.8338   197.4669 </r>
       <r>    -9.3238    14.2219   198.9910 </r>
       <r>    -9.2167    10.8499   200.1538 </r>
       <r>    -9.1095    11.6375   201.4010 </r>
       <r>    -9.0023    12.0771   202.6953 </r>
       <r>    -8.8952    10.0671   203.7741 </r>
       <r>    -8.7880     5.0551   204.3159 </r>
       <r>    -8.6808    21.9791   206.6714 </r>
       <r>    -8.5736    44.2037   211.4087 </r>
       <r>    -8.4665    39.7785   215.6717 </r>
       <r>    -8.3593    44.4295   220.4332 </r>
       <r>    -8.2521    55.2231   226.3514 </r>
       <r>    -8.1450    69.2829   233.7764 </r>
       <r>    -8.0378    81.0820   242.4659 </r>
       <r>    -7.9306    66.8790   249.6332 </r>
       <r>    -7.8235    86.1300   258.8637 </r>
       <r>    -7.7163    80.2345   267.4624 </r>
       <r>    -7.6091    44.5177   272.2333 </r>
       <r>    -7.5020    31.3800   275.5963 </r>
       <r>    -7.3948    37.7283   279.6396 </r>
       <r>    -7.2876    33.5343   283.2334 </r>
       <r>    -7.1804    31.7013   286.6308 </r>
       <r>    -7.0733    24.7057   289.2785 </r>
       <r>    -6.9661     6.4293   289.9675 </r>
       <r>    -6.8589     0.5929   290.0311 </r>
       <r>    -6.7518     4.5963   290.5237 </r>
       <r>    -6.6446    10.2366   291.6207 </r>
       <r>    -6.5374     3.9832   292.0476 </r>
       <r>    -6.4303     7.7300   292.8760 </r>
       <r>    -6.3231    21.2863   295.1572 </r>
       <r>    -6.2159    22.7896   297.5996 </r>
       <r>    -6.1088    28.4425   300.6477 </r>
       <r>    -6.0016    57.5305   306.8132 </r>
       <r>    -5.8944    73.9726   314.7408 </r>
       <r>    -5.7872    87.2063   324.0867 </r>
       <r>    -5.6801    72.9001   331.8993 </r>
       <r>    -5.5729    50.7502   337.3382 </r>
       <r>    -5.4657    40.9784   341.7298 </r>
       <r>    -5.3586    38.8744   345.8959 </r>
       <r>    -5.2514    38.6578   350.0388 </r>
       <r>    -5.1442    39.7324   354.2969 </r>
       <r>    -5.0371    52.1865   359.8897 </r>
       <r>    -4.9299    75.7368   368.0064 </r>
       <r>    -4.8227    74.9101   376.0344 </r>
       <r>    -4.7156    68.3529   383.3598 </r>
       <r>    -4.6084    85.0512   392.4746 </r>
       <r>    -4.5012   130.1777   406.4257 </r>
       <r>    -4.3940   156.4377   423.1910 </r>
       <r>    -4.2869   150.3401   439.3028 </r>
       <r>    -4.1797   136.6121   453.9434 </r>
       <r>    -4.0725   123.4867   467.1774 </r>
       <r>    -3.9654   123.9891   480.4652 </r>
       <r>    -3.8582   119.6813   493.2913 </r>
       <r>    -3.7510   117.9582   505.9328 </r>
       <r>    -3.6439    95.4867   516.1661 </r>
       <r>    -3.5367    58.0967   522.3922 </r>
       <r>    -3.4295    36.7355   526.3291 </r>
       <r>    -3.3224    47.6809   531.4391 </r>
       <r>    -3.2152    50.9513   536.8995 </r>
       <r>    -3.1080    55.1700   542.8120 </r>
       <r>    -3.0008    69.2854   550.2373 </r>
       <r>    -2.8937   101.4492   561.1095 </r>
       <r>    -2.7865    85.1368   570.2335 </r>
       <r>    -2.6793    58.3872   576.4908 </r>
       <r>    -2.5722    26.9186   579.3757 </r>
       <r>    -2.4650    15.9491   581.0849 </r>
       <r>    -2.3578     7.6998   581.9101 </r>
       <r>    -2.2507     0.8266   581.9987 </r>
       <r>    -2.1435     0.0121   582.0000 </r>
       <r>    -2.0363     0.0000   582.0000 </r>
       <r>    -1.9292     0.0000   582.0000 </r>
       <r>    -1.8220     0.0000   582.0000 </r>
       <r>    -1.7148     0.0000   582.0000 </r>
       <r>    -1.6076     0.0000   582.0000 </r>
       <r>    -1.5005     0.0000   582.0000 </r>
       <r>    -1.3933     0.0000   582.0000 </r>
       <r>    -1.2861     0.0000   582.0000 </r>
       <r>    -1.1790     0.0000   582.0000 </r>
       <r>    -1.0718     0.0000   582.0000 </r>
       <r>    -0.9646     0.0000   582.0000 </r>
       <r>    -0.8575     0.0000   582.0000 </r>
       <r>    -0.7503     0.0000   582.0000 </r>
       <r>    -0.6431     0.0000   582.0000 </r>
       <r>    -0.5360     0.0000   582.0000 </r>
       <r>    -0.4288     0.0000   582.0000 </r>
       <r>    -0.3216     0.0000   582.0000 </r>
       <r>    -0.2144     0.0000   582.0000 </r>
       <r>    -0.1073     0.0000   582.0000 </r>
       <r>    -0.0001     0.0000   582.0000 </r>
       <r>     0.1071     0.0000   582.0000 </r>
       <r>     0.2142     0.0000   582.0000 </r>
       <r>     0.3214     0.0000   582.0000 </r>
       <r>     0.4286     0.0000   582.0000 </r>
       <r>     0.5357     0.0000   582.0000 </r>
       <r>     0.6429     0.0000   582.0000 </r>
       <r>     0.7501     0.0000   582.0000 </r>
       <r>     0.8572     0.0000   582.0000 </r>
       <r>     0.9644     0.0000   582.0000 </r>
       <r>     1.0716     0.0000   582.0000 </r>
       <r>     1.1788     0.0000   582.0000 </r>
       <r>     1.2859     0.0000   582.0000 </r>
       <r>     1.3931     0.0000   582.0000 </r>
       <r>     1.5003     0.0000   582.0000 </r>
       <r>     1.6074     0.0000   582.0000 </r>
       <r>     1.7146     0.0000   582.0000 </r>
       <r>     1.8218     0.0000   582.0000 </r>
       <r>     1.9289     0.0000   582.0000 </r>
       <r>     2.0361     0.0000   582.0000 </r>
       <r>     2.1433     0.0000   582.0000 </r>
       <r>     2.2504     0.0000   582.0000 </r>
       <r>     2.3576     0.0000   582.0000 </r>
       <r>     2.4648     0.0000   582.0000 </r>
       <r>     2.5720     0.0000   582.0000 </r>
       <r>     2.6791     0.0072   582.0008 </r>
       <r>     2.7863     0.5971   582.0648 </r>
       <r>     2.8935     6.3045   582.7404 </r>
       <r>     3.0006     9.5484   583.7637 </r>
       <r>     3.1078     2.1402   583.9931 </r>
       <r>     3.2150     0.0645   584.0000 </r>
       <r>     3.3221     0.0002   584.0000 </r>
       <r>     3.4293     0.0003   584.0000 </r>
       <r>     3.5365     0.0721   584.0078 </r>
       <r>     3.6436     2.3838   584.2632 </r>
       <r>     3.7508    12.6966   585.6239 </r>
       <r>     3.8580    18.1938   587.5737 </r>
       <r>     3.9652    15.0327   589.1848 </r>
       <r>     4.0723     7.1759   589.9538 </r>
       <r>     4.1795     6.3555   590.6349 </r>
       <r>     4.2867    24.6211   593.2735 </r>
       <r>     4.3938    23.3358   595.7744 </r>
       <r>     4.5010    13.1862   597.1876 </r>
       <r>     4.6082    14.4426   598.7354 </r>
       <r>     4.7153    12.7075   600.0972 </r>
       <r>     4.8225    12.1099   601.3950 </r>
       <r>     4.9297    13.0233   602.7907 </r>
       <r>     5.0368    33.8114   606.4143 </r>
       <r>     5.1440    58.8768   612.7241 </r>
       <r>     5.2512    68.1465   620.0273 </r>
       <r>     5.3584    35.6288   623.8456 </r>
       <r>     5.4655    14.1890   625.3662 </r>
       <r>     5.5727    10.1982   626.4591 </r>
       <r>     5.6799    18.5340   628.4454 </r>
       <r>     5.7870    26.2099   631.2543 </r>
       <r>     5.8942    23.8913   633.8147 </r>
       <r>     6.0014    31.1001   637.1477 </r>
       <r>     6.1085    35.9183   640.9970 </r>
       <r>     6.2157    54.5365   646.8416 </r>
       <r>     6.3229    84.4609   655.8932 </r>
       <r>     6.4300    84.4963   664.9486 </r>
       <r>     6.5372    92.2597   674.8360 </r>
       <r>     6.6444   100.1966   685.5740 </r>
       <r>     6.7516   101.0912   696.4079 </r>
       <r>     6.8587    60.7887   702.9226 </r>
       <r>     6.9659     9.7751   703.9702 </r>
       <r>     7.0731     0.2774   703.9999 </r>
       <r>     7.1802     0.0011   704.0000 </r>
       <r>     7.2874     0.0000   704.0000 </r>
       <r>     7.3946     0.0000   704.0000 </r>
       <r>     7.5017     0.0000   704.0000 </r>
       <r>     7.6089     0.0000   704.0000 </r>
       <r>     7.7161     0.0000   704.0000 </r>
       <r>     7.8232     0.0000   704.0000 </r>
       <r>     7.9304     0.0000   704.0000 </r>
       <r>     8.0376     0.0000   704.0000 </r>
       <r>     8.1448     0.0000   704.0000 </r>
       <r>     8.2519     0.0000   704.0000 </r>
      </set>
     </set>
    </array>
   </total>
  </dos>
 </calculation>
 <structure name="finalpos" >
  <crystal>
   <varray name="basis" >
    <v>      13.72957181      -0.00462456      -0.00141144 </v>
    <v>      -6.86873914      11.89091482       0.00181973 </v>
    <v>      -0.00151065       0.00130727      14.89037843 </v>
   </varray>
   <i name="volume">   2430.48799023 </i>
   <varray name="rec_basis" >
    <v>       0.07284966       0.04208131       0.00000370 </v>
    <v>       0.00002833       0.08411419      -0.00000738 </v>
    <v>       0.00000690      -0.00000629       0.06715746 </v>
   </varray>
  </crystal>
  <varray name="positions" >
   <v>       0.55924125       0.66904738       0.55795069 </v>
   <v>       0.73232970       0.67162634       0.66925412 </v>
   <v>       0.76873537       0.70358318       0.60310189 </v>
   <v>       0.71666856       0.58569506       0.67815732 </v>
   <v>       0.78807232       0.72654409       0.72186446 </v>
   <v>       0.01655128       0.33437099       0.83521966 </v>
   <v>       0.20649573       0.41850852       0.53576857 </v>
   <v>       0.54650692       0.09557293       0.20048610 </v>
   <v>       0.87363924       0.75725877       0.86603437 </v>
   <v>       0.45141895       0.54547442       0.78474478 </v>
   <v>       0.12128769       0.87861634       0.12926803 </v>
   <v>       0.09059439       0.54683325       0.79953269 </v>
   <v>       0.41488204       0.20977617       0.46025362 </v>
   <v>       0.76115717       0.88075532       0.14014215 </v>
   <v>       0.21405009       0.78586865       0.53655686 </v>
   <v>       0.90024312       0.09832901       0.12600628 </v>
   <v>       0.23636769       0.12027853       0.86396096 </v>
   <v>       0.86730722       0.43650069       0.45263282 </v>
   <v>       0.43423745       0.87087721       0.54436874 </v>
   <v>       0.98187091       0.31466794       0.16673989 </v>
   <v>       0.64870439       0.01036172       0.50263176 </v>
   <v>       0.00280256       0.65065977       0.49605285 </v>
   <v>       0.33200499       0.31450977       0.16534240 </v>
   <v>       0.98524273       0.66521328       0.16320243 </v>
   <v>       0.35856588       0.36226470       0.49787213 </v>
   <v>       0.68330774       0.01861736       0.16748937 </v>
   <v>       0.65945794       0.97432803       0.83979028 </v>
   <v>      -0.00486894       0.34998004       0.50206956 </v>
   <v>       0.78158285       0.21939952       0.46246887 </v>
   <v>       0.33460625       0.01750216       0.16209036 </v>
   <v>       0.90924211       0.45319959       0.20223310 </v>
   <v>       0.31478922       0.33781564       0.83907225 </v>
   <v>       0.44673328       0.89970864       0.80168944 </v>
   <v>       0.06712967       0.66303108       0.66484886 </v>
   <v>       0.66222070       0.07205803       0.33387786 </v>
   <v>       0.99405155       0.74013129      -0.00145413 </v>
   <v>       0.59495804       0.94886508       0.67022150 </v>
   <v>       0.92271055       0.59683905       0.32964113 </v>
   <v>       0.25497700       0.25519249       0.00032664 </v>
   <v>       0.40944821       0.34165798       0.33078469 </v>
   <v>       0.78817120       0.57534039       0.46714787 </v>
   <v>       0.73940287       0.99506574       0.00325029 </v>
   <v>       0.58313248       0.80217340       0.54791421 </v>
   <v>       0.62366207       0.66982220       0.67268119 </v>
   <v>       0.25762530       0.00233604      -0.00275957 </v>
   <v>       0.06780862       0.40559096       0.66764858 </v>
   <v>       0.39920998       0.06700897       0.33110785 </v>
   <v>       0.31663040       0.38409531       0.66796052 </v>
   <v>       0.74553512       0.74707734       0.00529419 </v>
   <v>       0.54723162       0.44983981       0.19247224 </v>
   <v>       0.87539749       0.12026977       0.86953452 </v>
   <v>       0.33246807       0.92959736       0.66724018 </v>
   <v>       0.57192604       0.42384774       0.45410409 </v>
   <v>       0.67018117       0.58124886       0.32769965 </v>
   <v>       0.93040643       0.33297984       0.33361690 </v>
   <v>       0.34681402      -0.00025532       0.49964265 </v>
   <v>       0.31123907       0.98060882       0.83269740 </v>
   <v>       0.90275556       0.80181532       0.13001699 </v>
   <v>       0.22897272       0.76517388       0.78828977 </v>
   <v>       0.11830168       0.23748462       0.13404170 </v>
   <v>       0.56215316       0.13880573       0.45337136 </v>
   <v>       0.23263068       0.46920636       0.78815815 </v>
   <v>       0.19673887       0.09700056       0.12555429 </v>
   <v>      -0.00105544       0.25849373       0.00104232 </v>
   <v>       0.09431960       0.90119151       0.87459570 </v>
   <v>       0.80261733       0.90227268       0.87553007 </v>
   <v>       0.42079531       0.56683380       0.56828453 </v>
   <v>       0.53234227       0.76653298       0.77229454 </v>
   <v>       0.76781051       0.52947954       0.19755541 </v>
   <v>       0.13460722       0.56613068       0.54298954 </v>
   <v>       0.46487233       0.23227554       0.21079150 </v>
   <v>       0.63908631       0.64020225       0.48727204 </v>
   <v>       0.76616972       0.23450473       0.21144760 </v>
   <v>       0.65533453       0.68471827       0.84748296 </v>
   <v>       0.01332109       0.68479452       0.83108531 </v>
   <v>       0.09584888       0.19778483       0.87469740 </v>
   <v>       0.68404173       0.66529116       0.16722282 </v>
   <v>       0.55890098       0.89771851       0.77041111 </v>
   <v>      -0.00448423       0.77174016       0.89318883 </v>
   <v>       0.89591137       0.33302400       0.22918237 </v>
   <v>       0.77125221       0.99874173       0.10907616 </v>
   <v>       0.10221120       0.43609349       0.56228838 </v>
   <v>       0.32792545       0.43382932       0.76871190 </v>
   <v>       0.00030520       0.77138581       0.10485892 </v>
   <v>       0.33007400       0.89378035       0.77159713 </v>
   <v>       0.22780291       0.99952891       0.10319821 </v>
   <v>       0.22572081       0.22557612       0.10605888 </v>
   <v>       0.10255982       0.43882250       0.77213927 </v>
   <v>       0.66262440       0.11000880       0.43765092 </v>
   <v>      -0.00051952       0.22690871       0.10636566 </v>
   <v>       0.89409858       0.33514607       0.43735764 </v>
   <v>       0.33270069       0.89652250       0.56201040 </v>
   <v>       0.89538484       0.56476784       0.43559357 </v>
   <v>       0.10048306       0.66519752       0.77019782 </v>
   <v>       0.32822222       0.43564781       0.56604033 </v>
   <v>       0.89548764       0.56091951       0.22442066 </v>
   <v>       0.77435741       0.77415922       0.11143909 </v>
   <v>       0.66597937       0.55575990       0.43451915 </v>
   <v>       0.43895179       0.33520545       0.43611723 </v>
   <v>       0.10496751       0.66572146       0.56025901 </v>
   <v>       0.22431549       0.00069072       0.89234629 </v>
   <v>       0.66730285       0.55570515       0.22190087 </v>
   <v>       0.56205067       0.66668951       0.77320063 </v>
   <v>      -0.00298504       0.22770995       0.89539225 </v>
   <v>       0.77039710       0.77404942       0.89988705 </v>
   <v>       0.66507591       0.10576919       0.22891697 </v>
   <v>       0.22478538       0.22747436       0.89463296 </v>
   <v>       0.43834773       0.33412519       0.22603304 </v>
   <v>       0.76964008      -0.00097842       0.89736191 </v>
   <v>       0.56469486       0.90559642       0.56565827 </v>
   <v>       0.43622647       0.10345326       0.22711246 </v>
   <v>       0.43138058       0.10394098       0.43595929 </v>
  </varray>
 </structure>
</modeling>
