unknown system                          
           1
    13.729572   -0.004625   -0.001411
    -6.868739   11.890915    0.001820
    -0.001511    0.001307   14.890378
   Al   C    H    O    Si
   1   1   3  72  35
Direct configuration=     1
   0.56226675  0.66695774  0.56210364
   0.70344234  0.66514516  0.66181607
   0.69847612  0.69652556  0.59658482
   0.67725924  0.57742419  0.67036017
   0.73459165  0.72148573  0.71850324
   0.01866908  0.33415778  0.83400028
   0.21409633  0.42707628  0.53524471
   0.54684068  0.09367858  0.20255533
   0.88033373  0.76060205  0.86690236
   0.45307532  0.54735605  0.79899071
   0.12054702  0.87953215  0.13137146
   0.09356834  0.54704988  0.79753904
   0.42908437  0.21450775  0.46642178
   0.76014491  0.88009731  0.13310068
   0.21378515  0.78703006  0.53379068
   0.90028721  0.09915112  0.12387986
   0.23937203  0.11999702  0.86781467
   0.86357454  0.43151607  0.45676915
   0.43242939  0.86426723  0.54370028
   0.98229452  0.31530457  0.16694177
   0.64817130  0.99953414  0.49955176
   0.00043896  0.64720847  0.49975529
   0.33298125  0.31452668  0.16704582
   0.98098642  0.66644197  0.16658376
   0.35239198  0.35174152  0.50050091
   0.68385168  0.01788778  0.16566335
   0.66669377  0.98186541  0.83352303
   0.00116992  0.35335410  0.49925248
   0.78762049  0.21296121  0.46562061
   0.33373752  0.01849548  0.16668310
   0.90604538  0.45293233  0.20052744
   0.31495955  0.33394208  0.83414386
   0.45343721  0.90696615  0.79859222
   0.07328832  0.66873069  0.66657635
   0.66878397  0.07248771  0.33291341
   0.99839898  0.73872197  0.99995682
   0.59484588  0.92882677  0.66664679
   0.92775304  0.59328347  0.33317011
   0.26044392  0.26022676  0.00041043
   0.40496547  0.33173231  0.33375974
   0.78717796  0.57370545  0.46504080
   0.73962094  0.99881333  0.99981828
   0.57346146  0.78656886  0.53553586
   0.59502641  0.66649762  0.66714202
   0.26173374  0.00093142  0.99988745
   0.07171686  0.40445488  0.66663892
   0.40502615  0.07341303  0.33357486
   0.33388493  0.40556150  0.66715660
   0.74130148  0.74157771  0.99990420
   0.54626077  0.45356368  0.20249386
   0.88005958  0.12063688  0.86801315
   0.33290645  0.92704622  0.66660571
   0.56813333  0.43345568  0.45573462
   0.66787315  0.59620520  0.33318521
   0.92707692  0.33365692  0.33309150
   0.35337550  0.00075342  0.50030064
   0.31507762  0.98219159  0.83302738
   0.90175571  0.80301538  0.12424376
   0.23451294  0.76604255  0.79065746
   0.11938162  0.23874371  0.13244245
   0.56886513  0.13557705  0.45505081
   0.23426633  0.46883248  0.78952332
   0.19789636  0.09842721  0.12373094
   0.00001922  0.26079870  0.00040007
   0.09929620  0.90094046  0.87711490
   0.80289743  0.90184265  0.87522089
   0.43312280  0.56754296  0.54387454
   0.53149813  0.76617893  0.78927568
   0.76513887  0.53069600  0.21050735
   0.13681379  0.56845723  0.54503361
   0.46898042  0.23467224  0.20963910
   0.64913284  0.64895484  0.50026552
   0.76597739  0.23394914  0.20912494
   0.66631742  0.68549264  0.83419044
   0.01850874  0.68504333  0.83354036
   0.09893653  0.19841567  0.87681325
   0.68535530  0.66617265  0.16567902
   0.56160226  0.89548670  0.77161425
   0.99963954  0.77178059  0.89479173
   0.89488496  0.33352588  0.22786143
   0.77144754  0.99942864  0.10518678
   0.10592703  0.43874517  0.56189606
   0.33357859  0.43886748  0.77206256
   0.00004570  0.77197853  0.10511512
   0.33358113  0.89516793  0.77182313
   0.22843925  0.99974974  0.10499738
   0.22769218  0.22754836  0.10550695
   0.10497779  0.43863490  0.77151563
   0.66790209  0.10513258  0.43790817
   0.00006699  0.22803651  0.10547304
   0.89486199  0.33327201  0.43832718
   0.33354587  0.89477868  0.56149855
   0.89471565  0.56103274  0.43828992
   0.10537040  0.66709381  0.77164668
   0.33375432  0.43838063  0.56208668
   0.89452606  0.56088599  0.22808763
   0.77256536  0.77270690  0.10534218
   0.66765425  0.56266940  0.43814029
   0.43903444  0.33331600  0.43871159
   0.10601279  0.66735158  0.56164940
   0.22845574  0.00058940  0.89487405
   0.66657228  0.56165633  0.22836123
   0.56149853  0.66686609  0.77198996
   0.99987949  0.22851408  0.89520799
   0.77276445  0.77281234  0.89450369
   0.66676104  0.10493668  0.22800227
   0.22801816  0.22811264  0.89521057
   0.43835039  0.33325187  0.22863568
   0.77236684  0.00040877  0.89457899
   0.56181870  0.89478902  0.56175798
   0.43865925  0.10549905  0.22850692
   0.43951841  0.10602589  0.43844766
Direct configuration=     2
   0.54869850  0.66560440  0.54928503
   0.70156950  0.66963675  0.66499787
   0.71923591  0.70026237  0.59396687
   0.68015625  0.57629683  0.67008281
   0.74459941  0.72274945  0.71733872
   0.01858381  0.33401889  0.83412688
   0.21184449  0.42601614  0.53551228
   0.54683249  0.09365713  0.20237800
   0.87900997  0.76023860  0.86634814
   0.45585023  0.54953662  0.79857924
   0.12038891  0.87939944  0.13125178
   0.09350727  0.54720411  0.79771496
   0.42905828  0.21414636  0.46640040
   0.76016188  0.87994663  0.13281639
   0.21329968  0.78683977  0.53394521
   0.90023028  0.09900305  0.12371659
   0.23935291  0.11998246  0.86776019
   0.86360000  0.43162328  0.45680069
   0.43106752  0.86491994  0.54404839
   0.98239014  0.31523721  0.16674952
   0.64890004  0.00161171  0.49913062
   0.00037432  0.64733377  0.49990791
   0.33272915  0.31439061  0.16675330
   0.98112141  0.66670722  0.16632222
   0.35212020  0.35014004  0.50017333
   0.68399677  0.01772933  0.16535375
   0.66675859  0.98144430  0.83372993
   0.00082190  0.35325030  0.49921828
   0.78792408  0.21336622  0.46556574
   0.33349986  0.01835334  0.16646159
   0.90609473  0.45299357  0.20041318
   0.31537155  0.33431982  0.83426760
   0.45366047  0.90667620  0.79892141
   0.07297813  0.66871342  0.66704590
   0.66883417  0.07263099  0.33246633
   0.99817653  0.73867950  0.99945832
   0.59502348  0.92929202  0.66900441
   0.92784747  0.59335314  0.33301751
   0.26048447  0.26027274  0.00015715
   0.40494833  0.33158209  0.33326594
   0.78835057  0.57348027  0.46527918
   0.73960300  0.99861939  0.99934722
   0.57523880  0.80233555  0.53557772
   0.58796699  0.66155609  0.68462746
   0.26166849  0.00087827  0.99966388
   0.07153628  0.40445473  0.66731207
   0.40496970  0.07334756  0.33331183
   0.33373305  0.40488644  0.66942997
   0.74102456  0.74132741  0.99860680
   0.54625062  0.45353209  0.20218938
   0.87974470  0.12016773  0.86795453
   0.33277243  0.92712054  0.66726559
   0.56811126  0.43262773  0.45567696
   0.66814500  0.59592378  0.33202153
   0.92710978  0.33370230  0.33287547
   0.35316374  0.00084230  0.50031843
   0.31501430  0.98224918  0.83317211
   0.90164925  0.80303943  0.12395195
   0.23437390  0.76590980  0.79081659
   0.11933226  0.23872514  0.13233752
   0.56873670  0.13576944  0.45497233
   0.23482658  0.46911442  0.78986396
   0.19780636  0.09833841  0.12360155
  -0.00001130  0.26076415  0.00019110
   0.09872058  0.90057196  0.87705612
   0.80258183  0.90056889  0.87476514
   0.41813443  0.55363966  0.54452080
   0.53204630  0.76378131  0.78863630
   0.76537299  0.53071014  0.21025375
   0.13648983  0.56869760  0.54519554
   0.46899551  0.23458694  0.20947000
   0.65658413  0.64360363  0.48904821
   0.76603882  0.23402847  0.20898704
   0.66441339  0.68458260  0.83435504
   0.01799864  0.68509187  0.83367853
   0.09890652  0.19832776  0.87677742
   0.68561918  0.66664230  0.16511452
   0.56178441  0.89791632  0.76989989
   0.00109014  0.77201329  0.89525287
   0.89483412  0.33349396  0.22821390
   0.77139305  0.99967384  0.10580453
   0.10727769  0.43877231  0.56123808
   0.33105695  0.43662162  0.77033511
   0.00021091  0.77192661  0.10570093
   0.33347027  0.89526917  0.77115368
   0.22870080  0.99992158  0.10533792
   0.22789578  0.22772988  0.10592454
   0.10481817  0.43846933  0.77086700
   0.66753640  0.10412304  0.43853608
   0.00014990  0.22823733  0.10582924
   0.89483080  0.33305636  0.43851581
   0.33462908  0.89455380  0.56090245
   0.89433016  0.56079236  0.43815903
   0.10583368  0.66698450  0.77119231
   0.33797830  0.44466736  0.55986233
   0.89429621  0.56068318  0.22842589
   0.77249466  0.77263477  0.10655478
   0.66644400  0.56527283  0.43899396
   0.43875117  0.33411996  0.43923541
   0.10668702  0.66728795  0.56107652
   0.22891120  0.00084518  0.89500766
   0.66630153  0.56153525  0.22944933
   0.55308285  0.66602984  0.78054516
   0.00015894  0.22892671  0.89533097
   0.77505457  0.77496319  0.89746351
   0.66663125  0.10489306  0.22860642
   0.22790672  0.22801182  0.89544962
   0.43843416  0.33343783  0.22924777
   0.77231384  0.00156148  0.89496127
   0.56209701  0.88971770  0.55909417
   0.43878074  0.10558188  0.22889931
   0.43969094  0.10616105  0.43861139
Direct configuration=     3
   0.55729528  0.66646187  0.55740684
   0.70275612  0.66679090  0.66298190
   0.70608261  0.69789475  0.59562559
   0.67832072  0.57701112  0.67025854
   0.73825855  0.72194876  0.71807655
   0.01863784  0.33410689  0.83404667
   0.21327124  0.42668784  0.53534275
   0.54683768  0.09367072  0.20249035
   0.87984870  0.76046888  0.86669929
   0.45409206  0.54815502  0.79883994
   0.12048909  0.87948352  0.13132761
   0.09354596  0.54710639  0.79760350
   0.42907481  0.21437534  0.46641394
   0.76015113  0.88004210  0.13299652
   0.21360727  0.78696034  0.53384730
   0.90026635  0.09909687  0.12382004
   0.23936503  0.11999169  0.86779471
   0.86358387  0.43155536  0.45678071
   0.43193039  0.86450639  0.54382783
   0.98232955  0.31527989  0.16687133
   0.64843832  0.00029537  0.49939745
   0.00041528  0.64725438  0.49981121
   0.33288888  0.31447682  0.16693864
   0.98103588  0.66653916  0.16648793
   0.35229239  0.35115473  0.50038088
   0.68390484  0.01782972  0.16554991
   0.66671752  0.98171111  0.83359884
   0.00104240  0.35331606  0.49923995
   0.78773173  0.21310961  0.46560051
   0.33365044  0.01844340  0.16660194
   0.90606346  0.45295477  0.20048557
   0.31511051  0.33408049  0.83418920
   0.45351901  0.90685991  0.79871284
   0.07317466  0.66872436  0.66674840
   0.66880236  0.07254021  0.33274960
   0.99831747  0.73870641  0.99977417
   0.59491095  0.92899724  0.66751064
   0.92778764  0.59330900  0.33311420
   0.26045878  0.26024360  0.00031762
   0.40495919  0.33167726  0.33357881
   0.78760761  0.57362295  0.46512814
   0.73961437  0.99874227  0.99964568
   0.57411269  0.79234586  0.53555120
   0.59243980  0.66468702  0.67354877
   0.26170983  0.00091195  0.99980553
   0.07165070  0.40445483  0.66688557
   0.40500547  0.07338904  0.33347848
   0.33382928  0.40531416  0.66798957
   0.74120001  0.74148600  0.99942883
   0.54625705  0.45355210  0.20238230
   0.87994421  0.12046498  0.86799168
   0.33285734  0.92707345  0.66684749
   0.56812524  0.43315231  0.45571349
   0.66797275  0.59610209  0.33275883
   0.92708896  0.33367355  0.33301235
   0.35329791  0.00078599  0.50030716
   0.31505442  0.98221269  0.83308041
   0.90171670  0.80302419  0.12413684
   0.23446199  0.76599391  0.79071577
   0.11936353  0.23873691  0.13240400
   0.56881808  0.13564755  0.45502205
   0.23447160  0.46893578  0.78964813
   0.19786338  0.09839467  0.12368353
   0.00000804  0.26078604  0.00032350
   0.09908529  0.90080544  0.87709336
   0.80278179  0.90137594  0.87505390
   0.42763099  0.56244872  0.54411133
   0.53169898  0.76530043  0.78904141
   0.76522466  0.53070118  0.21041443
   0.13669509  0.56854530  0.54509294
   0.46898595  0.23464099  0.20957714
   0.65186303  0.64699413  0.49615544
   0.76599990  0.23397820  0.20907441
   0.66561978  0.68515920  0.83425075
   0.01832184  0.68506112  0.83359099
   0.09892553  0.19838346  0.87680013
   0.68545199  0.66634473  0.16547218
   0.56166900  0.89637693  0.77098610
   0.00017104  0.77186585  0.89496069
   0.89486633  0.33351419  0.22799058
   0.77142757  0.99951848  0.10541313
   0.10642192  0.43875511  0.56165497
   0.33265465  0.43804459  0.77142961
   0.00010624  0.77195951  0.10532976
   0.33354051  0.89520502  0.77157784
   0.22853508  0.99981270  0.10512215
   0.22776678  0.22761487  0.10565996
   0.10491931  0.43857423  0.77127797
   0.66776810  0.10476268  0.43813824
   0.00009737  0.22811010  0.10560356
   0.89485056  0.33319299  0.43839630
   0.33394276  0.89469629  0.56128014
   0.89457441  0.56094466  0.43824196
   0.10554015  0.66705376  0.77148020
   0.33530200  0.44068412  0.56127167
   0.89444184  0.56081168  0.22821157
   0.77253946  0.77268047  0.10578648
   0.66721080  0.56362331  0.43845308
   0.43893065  0.33361057  0.43890352
   0.10625983  0.66732826  0.56143949
   0.22862262  0.00068312  0.89492301
   0.66647307  0.56161196  0.22875992
   0.55841498  0.66655968  0.77512463
  -0.00001812  0.22866527  0.89525305
   0.77360356  0.77360042  0.89558818
   0.66671348  0.10492070  0.22822363
   0.22797733  0.22807570  0.89529816
   0.43838108  0.33332001  0.22885995
   0.77234742  0.00083113  0.89471906
   0.56192067  0.89293086  0.56078194
   0.43870377  0.10552940  0.22865069
   0.43958162  0.10607541  0.43850765
Direct configuration=     4
   0.55154165  0.66655987  0.54874838
   0.69650395  0.66681671  0.66448745
   0.72647107  0.70146207  0.59450028
   0.68278907  0.57900442  0.66980320
   0.75096940  0.72511175  0.71835463
   0.01871315  0.33423105  0.83401133
   0.21285671  0.42546306  0.53556116
   0.54685633  0.09360988  0.20231889
   0.88005531  0.76016912  0.86624851
   0.45043305  0.54416110  0.79932494
   0.12055403  0.87956988  0.13123323
   0.09353308  0.54694663  0.79778222
   0.42900801  0.21446475  0.46629858
   0.76014153  0.88014655  0.13276802
   0.21369526  0.78728109  0.53398991
   0.90033724  0.09905708  0.12368042
   0.23933969  0.11997688  0.86773019
   0.86369869  0.43139263  0.45676811
   0.43251232  0.86496682  0.54413925
   0.98229700  0.31537413  0.16686761
   0.64832932  0.00075305  0.50002515
   0.00049471  0.64737047  0.49997449
   0.33309199  0.31459351  0.16693840
   0.98098324  0.66637738  0.16649223
   0.35131513  0.35060752  0.50103518
   0.68374474  0.01788534  0.16558473
   0.66643706  0.98110257  0.83367139
   0.00107815  0.35341975  0.49941534
   0.78756967  0.21302906  0.46548567
   0.33381082  0.01847368  0.16662405
   0.90614529  0.45293177  0.20037894
   0.31536128  0.33424010  0.83447056
   0.45309635  0.90650056  0.79909360
   0.07295538  0.66869776  0.66655076
   0.66883297  0.07257576  0.33287296
   0.99811880  0.73867313  0.00004768
   0.59493871  0.92919247  0.66654553
   0.92801165  0.59343804  0.33299860
   0.26046632  0.26026296  0.00044856
   0.40484950  0.33157244  0.33366655
   0.78748206  0.57321533  0.46516126
   0.73958927  0.99855997  0.99992023
   0.57665190  0.79460014  0.53356394
   0.58691355  0.66006445  0.67646268
   0.26163909  0.00084875  0.99990984
   0.07154120  0.40451586  0.66663554
   0.40491684  0.07324189  0.33351775
   0.33381128  0.40491721  0.66694855
   0.74087821  0.74119697  0.00060874
   0.54621815  0.45353352  0.20207168
   0.88022970  0.12062547  0.86790228
   0.33274537  0.92712038  0.66659238
   0.56841048  0.43282754  0.45558275
   0.66820503  0.59579365  0.33203085
   0.92718362  0.33370849  0.33305168
   0.35302640  0.00069461  0.50038751
   0.31513366  0.98212198  0.83307288
   0.90175743  0.80309108  0.12385986
   0.23461165  0.76608673  0.79087283
   0.11934843  0.23872425  0.13233218
   0.56895573  0.13578561  0.45489140
   0.23449622  0.46931304  0.78999125
   0.19775469  0.09835062  0.12356840
  -0.00002830  0.26073511  0.00043104
   0.09919463  0.90112363  0.87703427
   0.80256472  0.90182725  0.87466675
   0.42210092  0.56063498  0.54310477
   0.53125272  0.76813958  0.78885973
   0.76521161  0.53076132  0.21013458
   0.13657454  0.56827344  0.54522022
   0.46895914  0.23464645  0.20942890
   0.65225757  0.65022621  0.49303132
   0.76595722  0.23390015  0.20895220
   0.66536615  0.68568594  0.83612524
   0.01821977  0.68483192  0.83333895
   0.09883904  0.19829240  0.87674745
   0.68524353  0.66598167  0.16540507
   0.56161314  0.89692646  0.77104843
   0.00020858  0.77187217  0.89497074
   0.89486570  0.33357770  0.22807449
   0.77145867  0.99961718  0.10543862
   0.10615643  0.43855702  0.56158707
   0.33226859  0.43766942  0.77159465
   0.00011508  0.77186983  0.10536447
   0.33346640  0.89523678  0.77152270
   0.22858581  0.99986403  0.10515918
   0.22783817  0.22765314  0.10569593
   0.10487085  0.43859735  0.77124963
   0.66778702  0.10513959  0.43815600
   0.00013152  0.22819331  0.10566235
   0.89477975  0.33328910  0.43843072
   0.33382153  0.89492430  0.56124285
   0.89443341  0.56077014  0.43813712
   0.10552011  0.66703999  0.77146276
   0.32883451  0.43297630  0.56161822
   0.89436930  0.56077063  0.22834093
   0.77248811  0.77252750  0.10586948
   0.66870315  0.55823554  0.43370837
   0.43909814  0.33355853  0.43890345
   0.10611935  0.66727531  0.56133606
   0.22863067  0.00072315  0.89494303
   0.66647525  0.56146608  0.22884962
   0.55315289  0.66642262  0.78762650
   0.00004596  0.22872374  0.89527745
   0.77370157  0.77387578  0.89643936
   0.66667672  0.10500018  0.22828730
   0.22802072  0.22811855  0.89532180
   0.43847109  0.33337828  0.22888927
   0.77238699  0.00084386  0.89479807
   0.56138358  0.90065584  0.56174096
   0.43872163  0.10557241  0.22872431
   0.43962843  0.10620926  0.43853131
Direct configuration=     5
   0.55343900  0.66652755  0.55160365
   0.69856571  0.66680820  0.66399097
   0.71974764  0.70028569  0.59487137
   0.68131556  0.57834709  0.66995335
   0.74677778  0.72406870  0.71826293
   0.01868831  0.33419011  0.83402298
   0.21299341  0.42586695  0.53548913
   0.54685018  0.09362994  0.20237543
   0.87998718  0.76026797  0.86639716
   0.45163967  0.54547816  0.79916501
   0.12053262  0.87954140  0.13126436
   0.09353733  0.54699931  0.79772328
   0.42903004  0.21443527  0.46633663
   0.76014469  0.88011211  0.13284337
   0.21366624  0.78717531  0.53394288
   0.90031386  0.09907020  0.12372646
   0.23934804  0.11998176  0.86775147
   0.86366082  0.43144629  0.45677226
   0.43232042  0.86481498  0.54403655
   0.98230773  0.31534305  0.16686883
   0.64836527  0.00060212  0.49981815
   0.00046852  0.64733219  0.49992064
   0.33302501  0.31455503  0.16693848
   0.98100060  0.66643073  0.16649081
   0.35163740  0.35078797  0.50081942
   0.68379754  0.01786700  0.16557325
   0.66652955  0.98130324  0.83364746
   0.00106637  0.35338556  0.49935750
   0.78762311  0.21305562  0.46552354
   0.33375793  0.01846369  0.16661676
   0.90611830  0.45293935  0.20041410
   0.31527859  0.33418746  0.83437778
   0.45323573  0.90661906  0.79896804
   0.07302769  0.66870653  0.66661593
   0.66882287  0.07256404  0.33283228
   0.99818432  0.73868410 -0.00004251
   0.59492956  0.92912809  0.66686379
   0.92793778  0.59339549  0.33303672
   0.26046384  0.26025657  0.00040538
   0.40488567  0.33160701  0.33363762
   0.78752346  0.57334975  0.46515034
   0.73959755  0.99862009  0.99982970
   0.57581455  0.79385675  0.53421927
   0.58873593  0.66158882  0.67550177
   0.26166242  0.00086959  0.99987544
   0.07157731  0.40449573  0.66671799
   0.40494607  0.07329042  0.33350480
   0.33381721  0.40504811  0.66729185
   0.74098433  0.74129228  0.00021964
   0.54623098  0.45353965  0.20217411
   0.88013556  0.12057255  0.86793176
   0.33278230  0.92710491  0.66667651
   0.56831642  0.43293464  0.45562587
   0.66812843  0.59589536  0.33227092
   0.92715240  0.33369697  0.33303871
   0.35311593  0.00072474  0.50036102
   0.31510753  0.98215189  0.83307536
   0.90174400  0.80306902  0.12395120
   0.23456230  0.76605612  0.79082104
   0.11935341  0.23872843  0.13235587
   0.56891033  0.13574008  0.45493448
   0.23448810  0.46918863  0.78987810
   0.19779053  0.09836515  0.12360637
  -0.00001632  0.26075191  0.00039558
   0.09915858  0.90101870  0.87705376
   0.80263630  0.90167842  0.87479442
   0.42392455  0.56123309  0.54343670
   0.53139988  0.76720332  0.78891964
   0.76521591  0.53074149  0.21022686
   0.13661429  0.56836309  0.54517825
   0.46896798  0.23464465  0.20947778
   0.65212747  0.64916038  0.49406155
   0.76597130  0.23392589  0.20899250
   0.66544979  0.68551224  0.83550710
   0.01825343  0.68490750  0.83342206
   0.09886757  0.19832243  0.87676482
   0.68531227  0.66610140  0.16542720
   0.56163156  0.89674524  0.77102788
   0.00019620  0.77187009  0.89496743
   0.89486591  0.33355675  0.22804682
   0.77144841  0.99958463  0.10543021
   0.10624398  0.43862234  0.56160946
   0.33239590  0.43779314  0.77154023
   0.00011216  0.77189941  0.10535302
   0.33349084  0.89522631  0.77154089
   0.22856908  0.99984710  0.10514697
   0.22781463  0.22764052  0.10568406
   0.10488683  0.43858973  0.77125898
   0.66778078  0.10501530  0.43815014
   0.00012026  0.22816587  0.10564296
   0.89480310  0.33325740  0.43841937
   0.33386151  0.89484911  0.56125515
   0.89447990  0.56082769  0.43817169
   0.10552672  0.66704453  0.77146851
   0.33096727  0.43551808  0.56150394
   0.89439323  0.56078416  0.22829827
   0.77250504  0.77257794  0.10584211
   0.66821103  0.56001224  0.43527302
   0.43904291  0.33357569  0.43890347
   0.10616567  0.66729278  0.56137017
   0.22862801  0.00070995  0.89493642
   0.66647453  0.56151418  0.22882004
   0.55488815  0.66646782  0.78350380
   0.00002483  0.22870446  0.89526940
   0.77366925  0.77378498  0.89615867
   0.66668884  0.10497397  0.22826630
   0.22800641  0.22810442  0.89531401
   0.43844141  0.33335906  0.22887960
   0.77237394  0.00083966  0.89477202
   0.56156070  0.89810840  0.56142471
   0.43871574  0.10555823  0.22870003
   0.43961299  0.10616512  0.43852350
Direct configuration=     6
   0.55402440  0.66587420  0.54879887
   0.69593879  0.66746200  0.66531177
   0.73169008  0.70159701  0.59675863
   0.68506248  0.58185513  0.66977200
   0.75468744  0.72459394  0.71687868
   0.01874184  0.33425288  0.83400282
   0.20969206  0.42362574  0.53528713
   0.54673971  0.09360164  0.20229658
   0.87994544  0.76014032  0.86636381
   0.44753309  0.54160375  0.80162207
   0.12059648  0.87960261  0.13122779
   0.09355920  0.54701468  0.79784066
   0.42895965  0.21448659  0.46625618
   0.76012751  0.88014489  0.13271418
   0.21382603  0.78741427  0.53402334
   0.90047347  0.09915531  0.12364145
   0.23935052  0.12000486  0.86772296
   0.86370232  0.43150405  0.45672852
   0.43106800  0.86533971  0.54410035
   0.98222344  0.31547829  0.16696160
   0.64971727  0.00364074  0.49937921
   0.00006132  0.64711400  0.49970536
   0.33329977  0.31470477  0.16703945
   0.98086525  0.66612655  0.16663628
   0.35133483  0.34827096  0.49999731
   0.68363290  0.01799444  0.16569469
   0.66646168  0.98105365  0.83379483
   0.00074904  0.35328029  0.49930166
   0.78756166  0.21308959  0.46543906
   0.33398162  0.01855324  0.16671406
   0.90615683  0.45301882  0.20038783
   0.31515823  0.33382427  0.83476539
   0.45266933  0.90650245  0.79920117
   0.07298892  0.66868665  0.66639375
   0.66880427  0.07257326  0.33321952
   0.99806038  0.73865358  0.00011713
   0.59497175  0.93008874  0.66734156
   0.92808883  0.59348356  0.33319532
   0.26046755  0.26026959  0.00055999
   0.40482685  0.33159676  0.33398033
   0.78836826  0.57257963  0.46497760
   0.73953568  0.99849755  0.99997056
   0.57746469  0.80017671  0.53320059
   0.58670447  0.65959298  0.67487487
   0.26163729  0.00083016  0.99998268
   0.07152439  0.40455708  0.66647765
   0.40490790  0.07318369  0.33373998
   0.33319568  0.40398372  0.66768784
   0.74071799  0.74106728  0.00113925
   0.54621450  0.45350915  0.20198677
   0.88026702  0.12067497  0.86789342
   0.33277937  0.92718073  0.66639822
   0.56749499  0.43083034  0.45527307
   0.66848273  0.59556979  0.33041991
   0.92722145  0.33372570  0.33322900
   0.35314653  0.00101458  0.50022507
   0.31514675  0.98212808  0.83309723
   0.90188601  0.80313580  0.12378800
   0.23463810  0.76608010  0.79089997
   0.11942941  0.23874514  0.13234247
   0.56883714  0.13587243  0.45486857
   0.23419203  0.46939388  0.79006894
   0.19772219  0.09837447  0.12354865
  -0.00003599  0.26073248  0.00051317
   0.09929026  0.90125965  0.87705005
   0.80248614  0.90195297  0.87470306
   0.41834578  0.55892600  0.54234328
   0.52957552  0.77053275  0.79018138
   0.76522407  0.53072997  0.21003583
   0.13661299  0.56811312  0.54521073
   0.46894989  0.23468941  0.20942480
   0.65105784  0.64860132  0.49013045
   0.76601233  0.23394475  0.20894614
   0.66568990  0.68634271  0.83948060
   0.01829466  0.68482948  0.83329024
   0.09889769  0.19828476  0.87674172
   0.68498679  0.66550066  0.16561810
   0.56186834  0.89807825  0.77077923
  -0.00015124  0.77171810  0.89474178
   0.89485904  0.33351833  0.22793750
   0.77147113  0.99959659  0.10546121
   0.10585298  0.43847082  0.56178882
   0.33076769  0.43609950  0.77090928
   0.00008915  0.77194070  0.10530662
   0.33337689  0.89519363  0.77166673
   0.22854859  0.99984154  0.10508838
   0.22777697  0.22760709  0.10561014
   0.10492668  0.43864988  0.77131465
   0.66816894  0.10578072  0.43771739
   0.00007378  0.22811856  0.10558052
   0.89495912  0.33320629  0.43840522
   0.33308511  0.89491941  0.56141799
   0.89526823  0.56096567  0.43829978
   0.10534133  0.66695954  0.77144279
   0.32883308  0.43297600  0.56239883
   0.89446629  0.56077021  0.22799143
   0.77262467  0.77272554  0.10623750
   0.66822347  0.56142374  0.43613367
   0.43854844  0.33333395  0.43911522
   0.10604674  0.66728085  0.56160426
   0.22858769  0.00070900  0.89490853
   0.66649641  0.56127345  0.22734981
   0.55525407  0.66574578  0.78534576
   0.00007067  0.22875911  0.89525619
   0.77382112  0.77371949  0.89612306
   0.66671104  0.10495901  0.22809397
   0.22806842  0.22817041  0.89524644
   0.43844942  0.33333227  0.22861568
   0.77253681  0.00085341  0.89476458
   0.56210480  0.89785748  0.56176141
   0.43875685  0.10552513  0.22852288
   0.43939424  0.10609019  0.43848636
Direct configuration=     7
   0.55376713  0.66616134  0.55003153
   0.69709328  0.66717467  0.66473130
   0.72644156  0.70102070  0.59592921
   0.68341577  0.58031340  0.66985170
   0.75121127  0.72436311  0.71748704
   0.01871832  0.33422529  0.83401168
   0.21114295  0.42461072  0.53537591
   0.54678826  0.09361408  0.20233124
   0.87996378  0.76019642  0.86637847
   0.44933787  0.54330649  0.80054223
   0.12056841  0.87957571  0.13124386
   0.09354959  0.54700793  0.79778907
   0.42899059  0.21446403  0.46629153
   0.76013506  0.88013048  0.13277096
   0.21375581  0.78730926  0.53398798
   0.90040332  0.09911790  0.12367881
   0.23934943  0.11999471  0.86773549
   0.86368408  0.43147867  0.45674774
   0.43161842  0.86510910  0.54407231
   0.98226049  0.31541886  0.16692083
   0.64912309  0.00230531  0.49957212
   0.00024028  0.64720989  0.49979997
   0.33317902  0.31463896  0.16699507
   0.98092473  0.66626024  0.16657235
   0.35146780  0.34937715  0.50035861
   0.68370526  0.01793843  0.16564132
   0.66649151  0.98116334  0.83373006
   0.00088850  0.35332655  0.49932620
   0.78758867  0.21307466  0.46547619
   0.33388331  0.01851388  0.16667130
   0.90613990  0.45298390  0.20039938
   0.31521113  0.33398389  0.83459504
   0.45291825  0.90655370  0.79909871
   0.07300596  0.66869539  0.66649140
   0.66881245  0.07256920  0.33304933
   0.99811485  0.73866700  0.00004697
   0.59495321  0.92966655  0.66713159
   0.92802245  0.59344485  0.33312561
   0.26046592  0.26026387  0.00049204
   0.40485270  0.33160126  0.33382971
   0.78799698  0.57291808  0.46505352
   0.73956287  0.99855140  0.99990865
   0.57673948  0.79739918  0.53364828
   0.58759727  0.66047012  0.67515038
   0.26164833  0.00084749  0.99993555
   0.07154765  0.40453012  0.66658328
   0.40492467  0.07323060  0.33363662
   0.33346883  0.40445150  0.66751381
   0.74083504  0.74116617  0.00073509
   0.54622174  0.45352255  0.20206910
   0.88020924  0.12062996  0.86791027
   0.33278066  0.92714741  0.66652052
   0.56785599  0.43175514  0.45542812
   0.66832702  0.59571287  0.33123340
   0.92719110  0.33371307  0.33314537
   0.35313308  0.00088720  0.50028482
   0.31512951  0.98213855  0.83308762
   0.90182360  0.80310645  0.12385972
   0.23460479  0.76606956  0.79086528
   0.11939601  0.23873779  0.13234836
   0.56886931  0.13581426  0.45489754
   0.23432215  0.46930368  0.78998507
   0.19775223  0.09837037  0.12357402
  -0.00002735  0.26074102  0.00046149
   0.09923239  0.90115376  0.87705168
   0.80255213  0.90183231  0.87474321
   0.42079757  0.55993993  0.54282382
   0.53037730  0.76906952  0.78962686
   0.76522049  0.53073503  0.21011979
   0.13661356  0.56822298  0.54519646
   0.46895784  0.23466974  0.20944809
   0.65152793  0.64884702  0.49185811
   0.76599430  0.23393646  0.20896652
   0.66558438  0.68597773  0.83773430
   0.01827654  0.68486377  0.83334817
   0.09888445  0.19830131  0.87675188
   0.68512983  0.66576468  0.16553421
   0.56176428  0.89749242  0.77088851
   0.00000146  0.77178490  0.89484095
   0.89486206  0.33353521  0.22798555
   0.77146115  0.99959133  0.10544759
   0.10602482  0.43853741  0.56171000
   0.33148326  0.43684383  0.77118657
   0.00009926  0.77192255  0.10532701
   0.33342697  0.89520799  0.77161142
   0.22855759  0.99984398  0.10511413
   0.22779352  0.22762179  0.10564263
   0.10490917  0.43862345  0.77129019
   0.66799835  0.10544433  0.43790758
   0.00009421  0.22813935  0.10560796
   0.89489056  0.33322875  0.43841144
   0.33342632  0.89488852  0.56134642
   0.89492178  0.56090503  0.43824349
   0.10542281  0.66699689  0.77145410
   0.32977102  0.43409321  0.56200554
   0.89443418  0.56077634  0.22812628
   0.77257209  0.77266068  0.10606373
   0.66821800  0.56080341  0.43575543
   0.43876575  0.33344019  0.43902216
   0.10609901  0.66728609  0.56150138
   0.22860541  0.00070941  0.89492079
   0.66648679  0.56137925  0.22799595
   0.55509325  0.66606310  0.78453625
   0.00005052  0.22873509  0.89526200
   0.77375438  0.77374827  0.89613871
   0.66670128  0.10496558  0.22816971