 112 112   0   0
  0.2170079E+02  0.1372957E-08  0.1373220E-08  0.1489038E-08  0.5000000E-15
  1.000000000000000E-004
  CAR 
 unknown system                          
      8.26987017    -24.00968175  301     -1.84102698      1.00000000
    -24.010  0.0000E+00  0.0000E+00
    -23.902  0.0000E+00  0.0000E+00
    -23.794  0.0000E+00  0.0000E+00
    -23.687  0.0000E+00  0.0000E+00
    -23.579  0.0000E+00  0.0000E+00
    -23.472  0.0000E+00  0.0000E+00
    -23.364  0.0000E+00  0.0000E+00
    -23.256  0.0000E+00  0.0000E+00
    -23.149  0.0000E+00  0.0000E+00
    -23.041  0.3208E-13  0.3451E-14
    -22.934  0.5839E-09  0.6283E-10
    -22.826  0.1120E-05  0.1206E-06
    -22.718  0.2363E-03  0.2555E-04
    -22.611  0.5950E-02  0.6658E-03
    -22.503  0.2021E-01  0.2840E-02
    -22.396  0.1008E-01  0.3924E-02
    -22.288  0.7032E-03  0.4000E-02
    -22.181  0.4717E-03  0.4050E-02
    -22.073  0.8401E-02  0.4954E-02
    -21.965  0.2436E-01  0.7575E-02
    -21.858  0.4092E-01  0.1198E-01
    -21.750  0.7194E-01  0.1972E-01
    -21.643  0.7544E-01  0.2784E-01
    -21.535  0.7050E-01  0.3542E-01
    -21.427  0.7490E-01  0.4348E-01
    -21.320  0.9517E-01  0.5372E-01
    -21.212  0.1055E+00  0.6507E-01
    -21.105  0.7626E-01  0.7328E-01
    -20.997  0.8695E-01  0.8263E-01
    -20.889  0.1189E+00  0.9543E-01
    -20.782  0.8912E-01  0.1050E+00
    -20.674  0.5301E-01  0.1107E+00
    -20.567  0.6023E-01  0.1172E+00
    -20.459  0.8512E-01  0.1264E+00
    -20.351  0.9795E-01  0.1369E+00
    -20.244  0.8901E-01  0.1465E+00
    -20.136  0.1465E+00  0.1622E+00
    -20.029  0.3505E+00  0.2000E+00
    -19.921  0.4006E+00  0.2431E+00
    -19.813  0.2027E+00  0.2649E+00
    -19.706  0.8330E-01  0.2738E+00
    -19.598  0.1896E-01  0.2759E+00
    -19.491  0.1340E-02  0.2760E+00
    -19.383  0.5213E-02  0.2766E+00
    -19.275  0.1984E-01  0.2787E+00
    -19.168  0.1183E-01  0.2800E+00
    -19.060  0.1242E-01  0.2813E+00
    -18.953  0.3299E-01  0.2849E+00
    -18.845  0.2466E-01  0.2875E+00
    -18.737  0.4278E-02  0.2880E+00
    -18.630  0.1160E-03  0.2880E+00
    -18.522  0.3832E-06  0.2880E+00
    -18.415  0.1389E-09  0.2880E+00
    -18.307  0.5283E-14  0.2880E+00
    -18.199  0.0000E+00  0.2880E+00
    -18.092  0.0000E+00  0.2880E+00
    -17.984  0.0000E+00  0.2880E+00
    -17.877  0.0000E+00  0.2880E+00
    -17.769  0.0000E+00  0.2880E+00
    -17.661  0.0000E+00  0.2880E+00
    -17.554  0.0000E+00  0.2880E+00
    -17.446  0.0000E+00  0.2880E+00
    -17.339  0.0000E+00  0.2880E+00
    -17.231  0.0000E+00  0.2880E+00
    -17.123  0.0000E+00  0.2880E+00
    -17.016  0.0000E+00  0.2880E+00
    -16.908  0.0000E+00  0.2880E+00
    -16.801  0.0000E+00  0.2880E+00
    -16.693  0.0000E+00  0.2880E+00
    -16.585  0.0000E+00  0.2880E+00
    -16.478  0.0000E+00  0.2880E+00
    -16.370  0.0000E+00  0.2880E+00
    -16.263  0.0000E+00  0.2880E+00
    -16.155  0.0000E+00  0.2880E+00
    -16.047  0.0000E+00  0.2880E+00
    -15.940  0.0000E+00  0.2880E+00
    -15.832  0.0000E+00  0.2880E+00
    -15.725  0.0000E+00  0.2880E+00
    -15.617  0.0000E+00  0.2880E+00
    -15.509  0.0000E+00  0.2880E+00
    -15.402  0.0000E+00  0.2880E+00
    -15.294  0.0000E+00  0.2880E+00
    -15.187  0.0000E+00  0.2880E+00
    -15.079  0.0000E+00  0.2880E+00
    -14.971  0.0000E+00  0.2880E+00
    -14.864  0.0000E+00  0.2880E+00
    -14.756  0.0000E+00  0.2880E+00
    -14.649  0.0000E+00  0.2880E+00
    -14.541  0.0000E+00  0.2880E+00
    -14.433  0.0000E+00  0.2880E+00
    -14.326  0.0000E+00  0.2880E+00
    -14.218  0.0000E+00  0.2880E+00
    -14.111  0.0000E+00  0.2880E+00
    -14.003  0.0000E+00  0.2880E+00
    -13.895  0.1765E-13  0.2880E+00
    -13.788  0.3634E-09  0.2880E+00
    -13.680  0.7869E-06  0.2880E+00
    -13.573  0.1868E-03  0.2880E+00
    -13.465  0.5264E-02  0.2886E+00
    -13.357  0.1987E-01  0.2907E+00
    -13.250  0.1099E-01  0.2919E+00
    -13.142  0.8528E-03  0.2920E+00
    -13.035  0.8192E-05  0.2920E+00
    -12.927  0.8844E-08  0.2920E+00
    -12.819  0.1017E-11  0.2920E+00
    -12.712  0.1020E-12  0.2920E+00
    -12.604  0.1457E-08  0.2920E+00
    -12.497  0.2202E-05  0.2920E+00
    -12.389  0.3685E-03  0.2920E+00
    -12.281  0.7444E-02  0.2928E+00
    -12.174  0.2055E-01  0.2951E+00
    -12.066  0.8342E-02  0.2959E+00
    -11.959  0.4716E-03  0.2960E+00
    -11.851  0.7857E-03  0.2961E+00
    -11.743  0.1449E-01  0.2976E+00
    -11.636  0.4016E-01  0.3020E+00
    -11.528  0.2192E-01  0.3043E+00
    -11.421  0.3475E-01  0.3081E+00
    -11.313  0.5269E-01  0.3137E+00
    -11.205  0.2980E-01  0.3169E+00
    -11.098  0.2976E-01  0.3201E+00
    -10.990  0.4247E-01  0.3247E+00
    -10.883  0.2751E-01  0.3277E+00
    -10.775  0.9245E-02  0.3287E+00
    -10.667  0.4405E-01  0.3334E+00
    -10.560  0.9742E-01  0.3439E+00
    -10.452  0.8481E-01  0.3530E+00
    -10.345  0.4711E-01  0.3581E+00
    -10.237  0.2893E-01  0.3612E+00
    -10.129  0.3693E-01  0.3652E+00
    -10.022  0.2329E-01  0.3677E+00
     -9.914  0.9640E-02  0.3687E+00
     -9.807  0.4598E-01  0.3737E+00
     -9.699  0.6583E-01  0.3807E+00
     -9.591  0.5558E-01  0.3867E+00
     -9.484  0.5609E-01  0.3928E+00
     -9.376  0.2852E-01  0.3958E+00
     -9.269  0.1619E-01  0.3976E+00
     -9.161  0.3353E-01  0.4012E+00
     -9.053  0.2839E-01  0.4042E+00
     -8.946  0.2370E-01  0.4068E+00
     -8.838  0.1277E-01  0.4082E+00
     -8.731  0.2895E-01  0.4113E+00
     -8.623  0.6916E-01  0.4187E+00
     -8.515  0.7978E-01  0.4273E+00
     -8.408  0.8903E-01  0.4369E+00
     -8.300  0.1030E+00  0.4480E+00
     -8.193  0.1410E+00  0.4631E+00
     -8.085  0.1426E+00  0.4785E+00
     -7.978  0.1310E+00  0.4926E+00
     -7.870  0.1620E+00  0.5100E+00
     -7.762  0.1659E+00  0.5278E+00
     -7.655  0.1187E+00  0.5406E+00
     -7.547  0.7689E-01  0.5489E+00
     -7.440  0.6656E-01  0.5560E+00
     -7.332  0.6299E-01  0.5628E+00
     -7.224  0.6519E-01  0.5698E+00
     -7.117  0.4877E-01  0.5751E+00
     -7.009  0.3609E-01  0.5790E+00
     -6.902  0.9157E-02  0.5800E+00
     -6.794  0.4217E-03  0.5800E+00
     -6.686  0.1167E-02  0.5801E+00
     -6.579  0.1303E-01  0.5815E+00
     -6.471  0.2853E-01  0.5846E+00
     -6.364  0.3959E-01  0.5889E+00
     -6.256  0.6054E-01  0.5954E+00
     -6.148  0.5412E-01  0.6012E+00
     -6.041  0.8042E-01  0.6098E+00
     -5.933  0.1469E+00  0.6256E+00
     -5.826  0.1700E+00  0.6439E+00
     -5.718  0.1381E+00  0.6588E+00
     -5.610  0.1197E+00  0.6717E+00
     -5.503  0.9330E-01  0.6817E+00
     -5.395  0.6237E-01  0.6884E+00
     -5.288  0.5184E-01  0.6940E+00
     -5.180  0.8027E-01  0.7026E+00
     -5.072  0.1252E+00  0.7161E+00
     -4.965  0.1590E+00  0.7332E+00
     -4.857  0.1453E+00  0.7489E+00
     -4.750  0.1134E+00  0.7611E+00
     -4.642  0.1412E+00  0.7763E+00
     -4.534  0.2443E+00  0.8025E+00
     -4.427  0.3287E+00  0.8379E+00
     -4.319  0.3292E+00  0.8733E+00
     -4.212  0.2775E+00  0.9032E+00
     -4.104  0.2346E+00  0.9284E+00
     -3.996  0.2415E+00  0.9544E+00
     -3.889  0.2599E+00  0.9824E+00
     -3.781  0.2340E+00  0.1008E+01
     -3.674  0.1957E+00  0.1029E+01
     -3.566  0.1178E+00  0.1041E+01
     -3.458  0.6470E-01  0.1048E+01
     -3.351  0.7734E-01  0.1057E+01
     -3.243  0.1173E+00  0.1069E+01
     -3.136  0.1512E+00  0.1085E+01
     -3.028  0.1530E+00  0.1102E+01
     -2.920  0.1595E+00  0.1119E+01
     -2.813  0.1589E+00  0.1136E+01
     -2.705  0.1255E+00  0.1150E+01
     -2.598  0.6250E-01  0.1156E+01
     -2.490  0.3016E-01  0.1160E+01
     -2.382  0.2329E-01  0.1162E+01
     -2.275  0.1511E-01  0.1164E+01
     -2.167  0.1827E-02  0.1164E+01
     -2.060  0.2852E-04  0.1164E+01
     -1.952  0.5096E-07  0.1164E+01
     -1.844  0.9791E-11  0.1164E+01
     -1.737  0.1981E-15  0.1164E+01
     -1.629  0.0000E+00  0.1164E+01
     -1.522  0.0000E+00  0.1164E+01
     -1.414  0.0000E+00  0.1164E+01
     -1.306  0.0000E+00  0.1164E+01
     -1.199  0.0000E+00  0.1164E+01
     -1.091  0.0000E+00  0.1164E+01
     -0.984  0.0000E+00  0.1164E+01
     -0.876  0.0000E+00  0.1164E+01
     -0.768  0.0000E+00  0.1164E+01
     -0.661  0.0000E+00  0.1164E+01
     -0.553  0.0000E+00  0.1164E+01
     -0.446  0.0000E+00  0.1164E+01
     -0.338  0.0000E+00  0.1164E+01
     -0.230  0.0000E+00  0.1164E+01
     -0.123  0.0000E+00  0.1164E+01
     -0.015  0.0000E+00  0.1164E+01
      0.092  0.0000E+00  0.1164E+01
      0.200  0.0000E+00  0.1164E+01
      0.308  0.0000E+00  0.1164E+01
      0.415  0.0000E+00  0.1164E+01
      0.523  0.0000E+00  0.1164E+01
      0.630  0.0000E+00  0.1164E+01
      0.738  0.0000E+00  0.1164E+01
      0.846  0.0000E+00  0.1164E+01
      0.953  0.0000E+00  0.1164E+01
      1.061  0.0000E+00  0.1164E+01
      1.168  0.0000E+00  0.1164E+01
      1.276  0.0000E+00  0.1164E+01
      1.384  0.0000E+00  0.1164E+01
      1.491  0.0000E+00  0.1164E+01
      1.599  0.0000E+00  0.1164E+01
      1.706  0.0000E+00  0.1164E+01
      1.814  0.0000E+00  0.1164E+01
      1.922  0.0000E+00  0.1164E+01
      2.029  0.0000E+00  0.1164E+01
      2.137  0.0000E+00  0.1164E+01
      2.244  0.0000E+00  0.1164E+01
      2.352  0.1651E-16  0.1164E+01
      2.460  0.1369E-11  0.1164E+01
      2.567  0.1114E-07  0.1164E+01
      2.675  0.9675E-05  0.1164E+01
      2.782  0.9460E-03  0.1164E+01
      2.890  0.1150E-01  0.1165E+01
      2.998  0.1964E-01  0.1167E+01
      3.105  0.4916E-02  0.1168E+01
      3.213  0.1642E-03  0.1168E+01
      3.320  0.9313E-06  0.1168E+01
      3.428  0.9349E-04  0.1168E+01
      3.536  0.3621E-02  0.1168E+01
      3.643  0.1888E-01  0.1170E+01
      3.751  0.2214E-01  0.1173E+01
      3.858  0.2197E-01  0.1175E+01
      3.966  0.7514E-02  0.1176E+01
      4.074  0.6328E-02  0.1177E+01
      4.181  0.2863E-01  0.1180E+01
      4.289  0.5707E-01  0.1186E+01
      4.396  0.5431E-01  0.1192E+01
      4.504  0.3165E-01  0.1195E+01
      4.612  0.3298E-01  0.1199E+01
      4.719  0.3878E-01  0.1203E+01
      4.827  0.1102E-01  0.1204E+01
      4.934  0.1680E-01  0.1206E+01
      5.042  0.6751E-01  0.1213E+01
      5.150  0.1190E+00  0.1226E+01
      5.257  0.1319E+00  0.1240E+01
      5.365  0.6761E-01  0.1247E+01
      5.472  0.2859E-01  0.1250E+01
      5.580  0.2313E-01  0.1253E+01
      5.688  0.3081E-01  0.1256E+01
      5.795  0.4518E-01  0.1261E+01
      5.903  0.5649E-01  0.1267E+01
      6.010  0.5728E-01  0.1273E+01
      6.118  0.8884E-01  0.1283E+01
      6.225  0.1303E+00  0.1297E+01
      6.333  0.1669E+00  0.1315E+01
      6.441  0.1569E+00  0.1332E+01
      6.548  0.1806E+00  0.1351E+01
      6.656  0.2028E+00  0.1373E+01
      6.763  0.1964E+00  0.1394E+01
      6.871  0.1109E+00  0.1406E+01
      6.979  0.1705E-01  0.1408E+01
      7.086  0.4717E-03  0.1408E+01
      7.194  0.1822E-05  0.1408E+01
      7.301  0.8387E-09  0.1408E+01
      7.409  0.4237E-13  0.1408E+01
      7.517  0.0000E+00  0.1408E+01
      7.624  0.0000E+00  0.1408E+01
      7.732  0.0000E+00  0.1408E+01
      7.839  0.0000E+00  0.1408E+01
      7.947  0.0000E+00  0.1408E+01
      8.055  0.0000E+00  0.1408E+01
      8.162  0.0000E+00  0.1408E+01
      8.270  0.0000E+00  0.1408E+01
