       N       E                     dE             d eps       ncg     rms          rms(c)
DAV:   1     0.444546044572E+04    0.44455E+04   -0.24512E+05   760   0.116E+03
DAV:   2    -0.416040972464E+03   -0.48615E+04   -0.47609E+04   880   0.326E+02
DAV:   3    -0.973225772796E+03   -0.55718E+03   -0.55508E+03   816   0.119E+02
DAV:   4    -0.986186656287E+03   -0.12961E+02   -0.12922E+02   832   0.196E+01
DAV:   5    -0.986591144813E+03   -0.40449E+00   -0.40404E+00   832   0.313E+00    0.858E+01
DAV:   6    -0.869767475168E+03    0.11682E+03   -0.50768E+02   800   0.354E+01    0.399E+01
DAV:   7    -0.869123735590E+03    0.64374E+00   -0.17187E+01   920   0.636E+00    0.150E+01
DAV:   8    -0.868595312256E+03    0.52842E+00   -0.12862E+00   816   0.240E+00    0.611E+00
DAV:   9    -0.868425847313E+03    0.16946E+00   -0.46857E-01   832   0.157E+00    0.101E+00
DAV:  10    -0.868425336306E+03    0.51101E-03   -0.11132E-01   816   0.722E-01    0.732E-01
DAV:  11    -0.868425027437E+03    0.30887E-03   -0.16518E-02   792   0.258E-01    0.380E-01
DAV:  12    -0.868430553639E+03   -0.55262E-02   -0.85565E-03   784   0.260E-01    0.145E-01
DAV:  13    -0.868442082584E+03   -0.11529E-01   -0.65135E-03   840   0.263E-01    0.224E-01
DAV:  14    -0.868450294385E+03   -0.82118E-02   -0.56459E-03   792   0.188E-01    0.112E-01
DAV:  15    -0.868453306219E+03   -0.30118E-02   -0.14721E-03   848   0.981E-02    0.557E-02
DAV:  16    -0.868454936653E+03   -0.16304E-02   -0.26294E-04   776   0.362E-02    0.525E-02
DAV:  17    -0.868455280756E+03   -0.34410E-03   -0.13726E-04   808   0.243E-02    0.364E-02
DAV:  18    -0.868455569731E+03   -0.28897E-03   -0.30810E-05   792   0.127E-02    0.138E-02
DAV:  19    -0.868455694571E+03   -0.12484E-03   -0.35320E-05   792   0.139E-02    0.771E-03
DAV:  20    -0.868455706577E+03   -0.12006E-04   -0.66974E-06   784   0.506E-03    0.641E-03
DAV:  21    -0.868455715532E+03   -0.89546E-05   -0.98612E-07   512   0.208E-03    0.504E-03
DAV:  22    -0.868455719574E+03   -0.40424E-05   -0.11986E-06   504   0.233E-03    0.156E-03
DAV:  23    -0.868455721590E+03   -0.20160E-05   -0.77484E-07   504   0.183E-03    0.158E-03
DAV:  24    -0.868455721855E+03   -0.26510E-06   -0.20517E-07   520   0.107E-03
   1 F= -.86845572E+03 E0= -.86845572E+03  d E =-.868456E+03
       N       E                     dE             d eps       ncg     rms          rms(c)
DAV:   1    -0.862140689327E+03    0.63150E+01   -0.13038E+03   720   0.565E+01    0.190E+01
DAV:   2    -0.866539447620E+03   -0.43988E+01   -0.56925E+01   816   0.120E+01    0.590E+00
DAV:   3    -0.865628896304E+03    0.91055E+00   -0.19640E+00   824   0.290E+00    0.305E+00
DAV:   4    -0.865361190151E+03    0.26771E+00   -0.11460E+00   824   0.215E+00    0.117E+00
DAV:   5    -0.865334908232E+03    0.26282E-01   -0.26214E-01   904   0.143E+00    0.874E-01
DAV:   6    -0.865326332837E+03    0.85754E-02   -0.66599E-02   808   0.620E-01    0.517E-01
DAV:   7    -0.865318951269E+03    0.73816E-02   -0.77601E-03   840   0.325E-01    0.322E-01
DAV:   8    -0.865313268295E+03    0.56830E-02   -0.76923E-03   880   0.460E-01    0.188E-01
DAV:   9    -0.865313007307E+03    0.26099E-03   -0.80018E-03   824   0.252E-01    0.112E-01
DAV:  10    -0.865313393791E+03   -0.38648E-03   -0.29828E-03   784   0.122E-01    0.107E-01
DAV:  11    -0.865313520235E+03   -0.12644E-03   -0.33943E-04   832   0.707E-02    0.542E-02
DAV:  12    -0.865314012966E+03   -0.49273E-03   -0.43784E-04   816   0.108E-01    0.359E-02
DAV:  13    -0.865314134280E+03   -0.12131E-03   -0.37189E-04   816   0.397E-02    0.199E-02
DAV:  14    -0.865314198634E+03   -0.64355E-04   -0.32985E-05   800   0.118E-02    0.172E-02
DAV:  15    -0.865314260626E+03   -0.61991E-04   -0.72134E-06   760   0.637E-03    0.971E-03
DAV:  16    -0.865314337549E+03   -0.76924E-04   -0.16869E-05   720   0.101E-02    0.446E-03
DAV:  17    -0.865314343750E+03   -0.62007E-05   -0.44735E-06   776   0.451E-03    0.424E-03
DAV:  18    -0.865314347651E+03   -0.39008E-05   -0.40554E-07   512   0.143E-03    0.321E-03
DAV:  19    -0.865314356296E+03   -0.86456E-05   -0.95271E-07   520   0.220E-03    0.144E-03
DAV:  20    -0.865314358162E+03   -0.18653E-05   -0.50993E-07   520   0.174E-03    0.114E-03
DAV:  21    -0.865314358602E+03   -0.44078E-06   -0.17425E-07   520   0.114E-03
   2 F= -.86531436E+03 E0= -.86531436E+03  d E =0.314136E+01
       N       E                     dE             d eps       ncg     rms          rms(c)
DAV:   1    -0.868997543020E+03   -0.36832E+01   -0.50727E+02   704   0.390E+01    0.956E+00
DAV:   2    -0.870487167236E+03   -0.14896E+01   -0.20353E+01   808   0.673E+00    0.403E+00
DAV:   3    -0.870138828990E+03    0.34834E+00   -0.56089E-01   824   0.189E+00    0.251E+00
DAV:   4    -0.870025939882E+03    0.11289E+00   -0.73832E-01   808   0.213E+00    0.994E-01
DAV:   5    -0.870024159266E+03    0.17806E-02   -0.18398E-01   816   0.870E-01    0.770E-01
DAV:   6    -0.870018904017E+03    0.52552E-02   -0.31663E-02   800   0.317E-01    0.349E-01
DAV:   7    -0.870016325522E+03    0.25785E-02   -0.21355E-03   864   0.204E-01    0.208E-01
DAV:   8    -0.870014750739E+03    0.15748E-02   -0.33279E-03   960   0.290E-01    0.825E-02
DAV:   9    -0.870014999904E+03   -0.24916E-03   -0.27560E-03   808   0.167E-01    0.511E-02
DAV:  10    -0.870015263736E+03   -0.26383E-03   -0.77982E-04   864   0.819E-02    0.593E-02
DAV:  11    -0.870015346247E+03   -0.82511E-04   -0.14337E-04   816   0.285E-02    0.531E-02
DAV:  12    -0.870015487591E+03   -0.14134E-03   -0.70111E-05   784   0.174E-02    0.211E-02
DAV:  13    -0.870015654649E+03   -0.16706E-03   -0.11070E-04   808   0.495E-02    0.283E-02
DAV:  14    -0.870015687143E+03   -0.32493E-04   -0.70233E-05   816   0.163E-02    0.151E-02
DAV:  15    -0.870015709134E+03   -0.21991E-04   -0.14036E-05   776   0.684E-03    0.549E-03
DAV:  16    -0.870015743196E+03   -0.34062E-04   -0.47403E-06   720   0.612E-03    0.437E-03
DAV:  17    -0.870015755987E+03   -0.12792E-04   -0.35143E-06   656   0.466E-03    0.358E-03
DAV:  18    -0.870015759496E+03   -0.35083E-05   -0.83605E-07   520   0.219E-03    0.147E-03
DAV:  19    -0.870015762089E+03   -0.25931E-05   -0.38215E-07   504   0.120E-03    0.114E-03
DAV:  20    -0.870015763151E+03   -0.10620E-05   -0.18308E-07   512   0.795E-04    0.598E-04
DAV:  21    -0.870015763476E+03   -0.32563E-06   -0.83453E-08   520   0.664E-04
   3 F= -.87001576E+03 E0= -.87001576E+03  d E =-.156004E+01
       N       E                     dE             d eps       ncg     rms          rms(c)
DAV:   1    -0.870257389032E+03   -0.24163E+00   -0.32625E+02   712   0.310E+01    0.527E+00
DAV:   2    -0.871085041106E+03   -0.82765E+00   -0.98538E+00   816   0.470E+00    0.281E+00
DAV:   3    -0.870983207364E+03    0.10183E+00   -0.23544E-01   808   0.100E+00    0.166E+00
DAV:   4    -0.870935581080E+03    0.47626E-01   -0.17162E-01   800   0.103E+00    0.477E-01
DAV:   5    -0.870932573327E+03    0.30078E-02   -0.58288E-02   840   0.505E-01    0.396E-01
DAV:   6    -0.870930551810E+03    0.20215E-02   -0.80891E-03   816   0.174E-01    0.238E-01
DAV:   7    -0.870929193939E+03    0.13579E-02   -0.12439E-03   912   0.147E-01    0.128E-01
DAV:   8    -0.870928748817E+03    0.44512E-03   -0.29924E-03   800   0.235E-01    0.564E-02
DAV:   9    -0.870929593077E+03   -0.84426E-03   -0.29517E-03   840   0.141E-01    0.527E-02
DAV:  10    -0.870929833965E+03   -0.24089E-03   -0.52358E-04   816   0.445E-02    0.569E-02
DAV:  11    -0.870929888974E+03   -0.55008E-04   -0.44649E-05   800   0.139E-02    0.446E-02
DAV:  12    -0.870930130289E+03   -0.24132E-03   -0.10135E-04   784   0.165E-02    0.214E-02
DAV:  13    -0.870930320065E+03   -0.18978E-03   -0.43331E-05   784   0.211E-02    0.189E-02
DAV:  14    -0.870930382779E+03   -0.62714E-04   -0.50375E-05   808   0.172E-02    0.764E-03
DAV:  15    -0.870930399322E+03   -0.16543E-04   -0.71138E-06   784   0.606E-03    0.443E-03
DAV:  16    -0.870930427141E+03   -0.27819E-04   -0.40405E-06   664   0.413E-03    0.209E-03
DAV:  17    -0.870930443791E+03   -0.16650E-04   -0.13094E-06   544   0.300E-03    0.229E-03
DAV:  18    -0.870930452978E+03   -0.91871E-05   -0.12408E-06   544   0.283E-03    0.164E-03
DAV:  19    -0.870930455240E+03   -0.22616E-05   -0.66068E-07   520   0.185E-03    0.141E-03
DAV:  20    -0.870930455618E+03   -0.37810E-06   -0.11330E-07   528   0.792E-04
   4 F= -.87093046E+03 E0= -.87093046E+03  d E =-.914692E+00
       N       E                     dE             d eps       ncg     rms          rms(c)
DAV:   1    -0.871092181704E+03   -0.16173E+00   -0.33341E+01   704   0.955E+00    0.167E+00
DAV:   2    -0.871163677272E+03   -0.71496E-01   -0.85687E-01   816   0.140E+00    0.907E-01
DAV:   3    -0.871153262466E+03    0.10415E-01   -0.22115E-02   808   0.318E-01    0.522E-01
DAV:   4    -0.871148827636E+03    0.44348E-02   -0.21914E-02   808   0.307E-01    0.171E-01
DAV:   5    -0.871148027443E+03    0.80019E-03   -0.47122E-03   952   0.175E-01    0.117E-01
DAV:   6    -0.871147760037E+03    0.26741E-03   -0.13428E-03   824   0.777E-02    0.671E-02
DAV:   7    -0.871147626801E+03    0.13324E-03   -0.19969E-04   832   0.476E-02    0.425E-02
DAV:   8    -0.871147533730E+03    0.93072E-04   -0.16656E-04   920   0.662E-02    0.149E-02
DAV:   9    -0.871147594074E+03   -0.60344E-04   -0.19621E-04   808   0.426E-02    0.149E-02
DAV:  10    -0.871147657633E+03   -0.63559E-04   -0.74371E-05   800   0.207E-02    0.138E-02
DAV:  11    -0.871147683335E+03   -0.25702E-04   -0.87383E-06   792   0.918E-03    0.830E-03
DAV:  12    -0.871147707854E+03   -0.24519E-04   -0.57021E-06   720   0.636E-03    0.324E-03
DAV:  13    -0.871147719199E+03   -0.11345E-04   -0.13557E-06   536   0.379E-03    0.171E-03
DAV:  14    -0.871147726860E+03   -0.76613E-05   -0.96282E-07   520   0.279E-03    0.814E-04
DAV:  15    -0.871147728558E+03   -0.16982E-05   -0.36912E-07   520   0.134E-03    0.911E-04
DAV:  16    -0.871147729443E+03   -0.88526E-06   -0.12070E-07   504   0.653E-04
   5 F= -.87114773E+03 E0= -.87114773E+03  d E =-.113197E+01
       N       E                     dE             d eps       ncg     rms          rms(c)
DAV:   1    -0.871083984700E+03    0.63744E-01   -0.23225E+02   704   0.272E+01    0.528E+00
DAV:   2    -0.871531613719E+03   -0.44763E+00   -0.58085E+00   824   0.391E+00    0.177E+00
DAV:   3    -0.871454697689E+03    0.76916E-01   -0.18711E-01   824   0.981E-01    0.103E+00
DAV:   4    -0.871422055846E+03    0.32642E-01   -0.10877E-01   816   0.799E-01    0.322E-01
DAV:   5    -0.871420835244E+03    0.12206E-02   -0.32338E-02   840   0.424E-01    0.337E-01
DAV:   6    -0.871419905181E+03    0.93006E-03   -0.54760E-03   800   0.165E-01    0.232E-01
DAV:   7    -0.871418837326E+03    0.10679E-02   -0.62368E-04   856   0.962E-02    0.132E-01
DAV:   8    -0.871417983805E+03    0.85352E-03   -0.96032E-04   824   0.142E-01    0.495E-02
DAV:   9    -0.871418002128E+03   -0.18323E-04   -0.10851E-03   872   0.103E-01    0.423E-02
DAV:  10    -0.871418119773E+03   -0.11764E-03   -0.39431E-04   792   0.423E-02    0.444E-02
DAV:  11    -0.871418148357E+03   -0.28584E-04   -0.47452E-05   800   0.219E-02    0.284E-02
DAV:  12    -0.871418248809E+03   -0.10045E-03   -0.10625E-04   824   0.290E-02    0.984E-03
DAV:  13    -0.871418271912E+03   -0.23104E-04   -0.35260E-05   808   0.125E-02    0.864E-03
DAV:  14    -0.871418281511E+03   -0.95988E-05   -0.25436E-06   648   0.317E-03    0.691E-03
DAV:  15    -0.871418311353E+03   -0.29842E-04   -0.35445E-06   664   0.384E-03    0.332E-03
DAV:  16    -0.871418327004E+03   -0.15651E-04   -0.24561E-06   616   0.369E-03    0.416E-03
DAV:  17    -0.871418330011E+03   -0.30074E-05   -0.12359E-06   536   0.279E-03    0.235E-03
DAV:  18    -0.871418331236E+03   -0.12245E-05   -0.41356E-07   520   0.141E-03    0.154E-03
DAV:  19    -0.871418334099E+03   -0.28630E-05   -0.38349E-07   504   0.134E-03    0.118E-03
DAV:  20    -0.871418335013E+03   -0.91421E-06   -0.12883E-07   520   0.754E-04
   6 F= -.87141834E+03 E0= -.87141834E+03  d E =-.270606E+00
       N       E                     dE             d eps       ncg     rms          rms(c)
DAV:   1    -0.871513373177E+03   -0.95039E-01   -0.30582E+01   704   0.998E+00    0.197E+00
DAV:   2    -0.871567165592E+03   -0.53792E-01   -0.71399E-01   832   0.138E+00    0.646E-01
DAV:   3    -0.871556586860E+03    0.10579E-01   -0.20611E-02   824   0.374E-01    0.373E-01
DAV:   4    -0.871552573328E+03    0.40135E-02   -0.16982E-02   808   0.338E-01    0.123E-01
DAV:   5    -0.871552553280E+03    0.20048E-04   -0.46768E-03   816   0.146E-01    0.123E-01
DAV:   6    -0.871552351799E+03    0.20148E-03   -0.62747E-04   808   0.567E-02    0.649E-02
DAV:   7    -0.871552220607E+03    0.13119E-03   -0.66746E-05   848   0.367E-02    0.391E-02
DAV:   8    -0.871552123894E+03    0.96713E-04   -0.11993E-04   880   0.541E-02    0.121E-02
DAV:   9    -0.871552144285E+03   -0.20391E-04   -0.10898E-04   824   0.350E-02    0.106E-02
DAV:  10    -0.871552167130E+03   -0.22845E-04   -0.43198E-05   800   0.156E-02    0.123E-02
DAV:  11    -0.871552170901E+03   -0.37713E-05   -0.35710E-06   664   0.403E-03    0.100E-02
DAV:  12    -0.871552187180E+03   -0.16279E-04   -0.68420E-06   720   0.493E-03    0.414E-03
DAV:  13    -0.871552197040E+03   -0.98593E-05   -0.12820E-06   568   0.458E-03    0.404E-03
DAV:  14    -0.871552201900E+03   -0.48603E-05   -0.17705E-06   568   0.348E-03    0.169E-03
DAV:  15    -0.871552204470E+03   -0.25698E-05   -0.63770E-07   520   0.160E-03    0.846E-04
DAV:  16    -0.871552206650E+03   -0.21800E-05   -0.24727E-07   496   0.113E-03    0.645E-04
DAV:  17    -0.871552207124E+03   -0.47421E-06   -0.84051E-08   520   0.593E-04
   7 F= -.87155221E+03 E0= -.87155221E+03  d E =-.404478E+00
       N       E                     dE             d eps       ncg     rms          rms(c)
DAV:   1    -0.871596703385E+03   -0.44497E-01   -0.10305E+02   704   0.185E+01    0.278E+00
DAV:   2    -0.871808231394E+03   -0.21153E+00   -0.27168E+00   824   0.272E+00    0.137E+00
DAV:   3    -0.871777652349E+03    0.30579E-01   -0.78149E-02   832   0.613E-01    0.847E-01
DAV:   4    -0.871763173246E+03    0.14479E-01   -0.56375E-02   808   0.579E-01    0.261E-01
DAV:   5    -0.871762420518E+03    0.75273E-03   -0.15040E-02   864   0.306E-01    0.223E-01
DAV:   6    -0.871761842406E+03    0.57811E-03   -0.52989E-03   808   0.180E-01    0.130E-01
DAV:   7    -0.871761521727E+03    0.32068E-03   -0.54608E-04   832   0.839E-02    0.916E-02
DAV:   8    -0.871761295150E+03    0.22658E-03   -0.29754E-04   824   0.852E-02    0.310E-02
DAV:   9    -0.871761303203E+03   -0.80534E-05   -0.30689E-04   856   0.895E-02    0.274E-02
DAV:  10    -0.871761422728E+03   -0.11952E-03   -0.34811E-04   832   0.599E-02    0.217E-02
DAV:  11    -0.871761451042E+03   -0.28314E-04   -0.94424E-05   816   0.177E-02    0.244E-02
DAV:  12    -0.871761458926E+03   -0.78839E-05   -0.27000E-06   656   0.441E-03    0.204E-02
DAV:  13    -0.871761516739E+03   -0.57813E-04   -0.65064E-05   760   0.154E-02    0.199E-02
DAV:  14    -0.871761525300E+03   -0.85603E-05   -0.70296E-06   784   0.648E-03    0.142E-02
DAV:  15    -0.871761531787E+03   -0.64873E-05   -0.13362E-05   760   0.739E-03    0.423E-03
DAV:  16    -0.871761534914E+03   -0.31275E-05   -0.12522E-06   528   0.286E-03    0.453E-03
DAV:  17    -0.871761537107E+03   -0.21926E-05   -0.65332E-07   496   0.164E-03    0.133E-03
DAV:  18    -0.871761539364E+03   -0.22572E-05   -0.63693E-07   504   0.224E-03    0.223E-03
DAV:  19    -0.871761539923E+03   -0.55859E-06   -0.29830E-07   512   0.145E-03
   8 F= -.87176154E+03 E0= -.87176154E+03  d E =-.209333E+00
       N       E                     dE             d eps       ncg     rms          rms(c)
DAV:   1    -0.871786620837E+03   -0.25081E-01   -0.81501E+00   704   0.522E+00    0.804E-01
DAV:   2    -0.871802090404E+03   -0.15470E-01   -0.20105E-01   824   0.758E-01    0.373E-01
DAV:   3    -0.871799815334E+03    0.22751E-02   -0.59718E-03   832   0.166E-01    0.228E-01
DAV:   4    -0.871798740092E+03    0.10752E-02   -0.38032E-03   808   0.147E-01    0.704E-02
DAV:   5    -0.871798657068E+03    0.83025E-04   -0.99852E-04   904   0.838E-02    0.573E-02
DAV:   6    -0.871798609211E+03    0.47857E-04   -0.38540E-04   808   0.522E-02    0.357E-02
DAV:   7    -0.871798584005E+03    0.25206E-04   -0.56670E-05   816   0.234E-02    0.254E-02
DAV:   8    -0.871798563127E+03    0.20878E-04   -0.17791E-05   776   0.217E-02    0.872E-03
DAV:   9    -0.871798560154E+03    0.29731E-05   -0.23372E-05   816   0.253E-02    0.742E-03
DAV:  10    -0.871798569020E+03   -0.88665E-05   -0.28022E-05   840   0.177E-02    0.549E-03
DAV:  11    -0.871798570971E+03   -0.19502E-05   -0.89394E-06   792   0.541E-03    0.685E-03
DAV:  12    -0.871798571279E+03   -0.30814E-06   -0.25434E-07   504   0.120E-03
   9 F= -.87179857E+03 E0= -.87179857E+03  d E =-.246364E+00
       N       E                     dE             d eps       ncg     rms          rms(c)
DAV:   1    -0.871867654013E+03   -0.69083E-01   -0.59860E+01   704   0.144E+01    0.222E+00
DAV:   2    -0.871964221631E+03   -0.96568E-01   -0.12577E+00   792   0.191E+00    0.996E-01
DAV:   3    -0.871945166834E+03    0.19055E-01   -0.30394E-02   832   0.429E-01    0.573E-01
DAV:   4    -0.871937663313E+03    0.75035E-02   -0.35155E-02   816   0.472E-01    0.166E-01
DAV:   5    -0.871937796476E+03   -0.13316E-03   -0.10433E-02   816   0.212E-01    0.179E-01
DAV:   6    -0.871937507801E+03    0.28868E-03   -0.17505E-03   808   0.839E-02    0.105E-01
DAV:   7    -0.871937362908E+03    0.14489E-03   -0.10852E-04   960   0.502E-02    0.710E-02
DAV:   8    -0.871937303466E+03    0.59442E-04   -0.25218E-04   848   0.774E-02    0.284E-02
DAV:   9    -0.871937398735E+03   -0.95269E-04   -0.20762E-04   856   0.525E-02    0.196E-02
DAV:  10    -0.871937470039E+03   -0.71303E-04   -0.14112E-04   792   0.273E-02    0.196E-02
DAV:  11    -0.871937487444E+03   -0.17405E-04   -0.12143E-05   808   0.887E-03    0.140E-02
DAV:  12    -0.871937526171E+03   -0.38727E-04   -0.53023E-06   664   0.866E-03    0.951E-03
DAV:  13    -0.871937548576E+03   -0.22406E-04   -0.10161E-05   752   0.842E-03    0.330E-03
DAV:  14    -0.871937552424E+03   -0.38473E-05   -0.27815E-06   624   0.339E-03    0.246E-03
DAV:  15    -0.871937556313E+03   -0.38897E-05   -0.33719E-07   488   0.143E-03    0.168E-03
DAV:  16    -0.871937559432E+03   -0.31183E-05   -0.47071E-07   496   0.181E-03    0.865E-04
DAV:  17    -0.871937560106E+03   -0.67413E-06   -0.32529E-07   520   0.138E-03
  10 F= -.87193756E+03 E0= -.87193756E+03  d E =-.138989E+00
       N       E                     dE             d eps       ncg     rms          rms(c)
DAV:   1    -0.871939739428E+03   -0.21800E-02   -0.10513E+00   704   0.191E+00    0.295E-01
DAV:   2    -0.871941406170E+03   -0.16667E-02   -0.21907E-02   800   0.252E-01    0.134E-01
DAV:   3    -0.871941067590E+03    0.33858E-03   -0.52068E-04   824   0.576E-02    0.773E-02
DAV:   4    -0.871940936193E+03    0.13140E-03   -0.63778E-04   800   0.646E-02    0.232E-02
DAV:   5    -0.871940937309E+03   -0.11167E-05   -0.18915E-04   824   0.284E-02    0.238E-02
DAV:   6    -0.871940931863E+03    0.54467E-05   -0.33844E-05   808   0.112E-02    0.135E-02
DAV:   7    -0.871940928985E+03    0.28780E-05   -0.15852E-06   592   0.670E-03    0.935E-03
DAV:   8    -0.871940927512E+03    0.14725E-05   -0.60246E-06   784   0.108E-02    0.425E-03
DAV:   9    -0.871940929046E+03   -0.15339E-05   -0.35767E-06   672   0.663E-03    0.253E-03
DAV:  10    -0.871940930193E+03   -0.11470E-05   -0.22974E-06   584   0.354E-03    0.282E-03
DAV:  11    -0.871940930563E+03   -0.36970E-06   -0.31117E-07   504   0.147E-03
  11 F= -.87194093E+03 E0= -.87194093E+03  d E =-.142359E+00
       N       E                     dE             d eps       ncg     rms          rms(c)
DAV:   1    -0.871997833461E+03   -0.56903E-01   -0.42372E+01   704   0.123E+01    0.183E+00
DAV:   2    -0.872060272778E+03   -0.62439E-01   -0.86592E-01   816   0.163E+00    0.823E-01
DAV:   3    -0.872049189963E+03    0.11083E-01   -0.21430E-02   824   0.366E-01    0.485E-01
DAV:   4    -0.872044746710E+03    0.44433E-02   -0.23789E-02   808   0.410E-01    0.146E-01
DAV:   5    -0.872044880407E+03   -0.13370E-03   -0.70186E-03   808   0.174E-01    0.159E-01
DAV:   6    -0.872044658507E+03    0.22190E-03   -0.13607E-03   808   0.742E-02    0.910E-02
DAV:   7    -0.872044517108E+03    0.14140E-03   -0.90244E-05   888   0.451E-02    0.510E-02
DAV:   8    -0.872044417179E+03    0.99930E-04   -0.11433E-04   864   0.645E-02    0.138E-02
DAV:   9    -0.872044435243E+03   -0.18065E-04   -0.15122E-04   896   0.529E-02    0.124E-02
DAV:  10    -0.872044459947E+03   -0.24704E-04   -0.80131E-05   784   0.224E-02    0.144E-02
DAV:  11    -0.872044461379E+03   -0.14313E-05   -0.72842E-06   792   0.468E-03    0.156E-02
DAV:  12    -0.872044461361E+03    0.17193E-07   -0.10895E-07   520   0.679E-04
  12 F= -.87204446E+03 E0= -.87204446E+03  d E =-.103531E+00
       N       E                     dE             d eps       ncg     rms          rms(c)
DAV:   1    -0.872044632424E+03   -0.17105E-03   -0.15223E-01   720   0.740E-01    0.108E-01
DAV:   2    -0.872044852701E+03   -0.22028E-03   -0.31012E-03   808   0.980E-02    0.509E-02
DAV:   3    -0.872044813910E+03    0.38791E-04   -0.76157E-05   816   0.222E-02    0.305E-02
DAV:   4    -0.872044800752E+03    0.13158E-04   -0.95056E-05   784   0.285E-02    0.919E-03
DAV:   5    -0.872044803089E+03   -0.23370E-05   -0.32697E-05   808   0.117E-02    0.105E-02
DAV:   6    -0.872044802927E+03    0.16212E-06   -0.46534E-06   704   0.426E-03
  13 F= -.87204480E+03 E0= -.87204480E+03  d E =-.103872E+00
       N       E                     dE             d eps       ncg     rms          rms(c)
DAV:   1    -0.872113586899E+03   -0.68784E-01   -0.18813E+01   704   0.814E+00    0.107E+00
DAV:   2    -0.872141072656E+03   -0.27486E-01   -0.38173E-01   808   0.105E+00    0.545E-01
DAV:   3    -0.872137202381E+03    0.38703E-02   -0.10958E-02   816   0.220E-01    0.317E-01
DAV:   4    -0.872135998445E+03    0.12039E-02   -0.79452E-03   816   0.217E-01    0.999E-02
DAV:   5    -0.872136025248E+03   -0.26803E-04   -0.16880E-03   808   0.890E-02    0.819E-02
DAV:   6    -0.872135982811E+03    0.42437E-04   -0.59779E-04   808   0.503E-02    0.408E-02
DAV:   7    -0.872135959743E+03    0.23068E-04   -0.45379E-05   808   0.219E-02    0.217E-02
DAV:   8    -0.872135945995E+03    0.13748E-04   -0.23073E-05   832   0.226E-02    0.730E-03
DAV:   9    -0.872135943988E+03    0.20070E-05   -0.14063E-05   888   0.190E-02    0.546E-03
DAV:  10    -0.872135946197E+03   -0.22092E-05   -0.13952E-05   808   0.111E-02    0.537E-03
DAV:  11    -0.872135947562E+03   -0.13648E-05   -0.15204E-06   576   0.415E-03    0.439E-03
DAV:  12    -0.872135949564E+03   -0.20020E-05   -0.69244E-07   496   0.532E-03    0.222E-03
DAV:  13    -0.872135951267E+03   -0.17032E-05   -0.14270E-06   536   0.361E-03    0.126E-03
DAV:  14    -0.872135951659E+03   -0.39239E-06   -0.57256E-07   528   0.153E-03
  14 F= -.87213595E+03 E0= -.87213595E+03  d E =-.911487E-01
       N       E                     dE             d eps       ncg     rms          rms(c)
DAV:   1    -0.872141237270E+03   -0.52860E-02   -0.29343E+01   704   0.102E+01    0.133E+00
DAV:   2    -0.872184745653E+03   -0.43508E-01   -0.59662E-01   808   0.131E+00    0.674E-01
DAV:   3    -0.872178788169E+03    0.59575E-02   -0.16765E-02   816   0.274E-01    0.395E-01
DAV:   4    -0.872176870668E+03    0.19175E-02   -0.12153E-02   816   0.271E-01    0.124E-01
DAV:   5    -0.872176917939E+03   -0.47271E-04   -0.26492E-03   808   0.112E-01    0.102E-01
DAV:   6    -0.872176852294E+03    0.65645E-04   -0.89618E-04   808   0.620E-02    0.510E-02
DAV:   7    -0.872176815124E+03    0.37170E-04   -0.69387E-05   808   0.278E-02    0.272E-02
DAV:   8    -0.872176792969E+03    0.22155E-04   -0.37242E-05   888   0.292E-02    0.918E-03
DAV:   9    -0.872176790130E+03    0.28383E-05   -0.22337E-05   856   0.242E-02    0.689E-03
DAV:  10    -0.872176793908E+03   -0.37782E-05   -0.22990E-05   808   0.143E-02    0.679E-03
DAV:  11    -0.872176796311E+03   -0.24030E-05   -0.26697E-06   584   0.519E-03    0.563E-03
DAV:  12    -0.872176799731E+03   -0.34200E-05   -0.10198E-06   520   0.669E-03    0.292E-03
DAV:  13    -0.872176802718E+03   -0.29862E-05   -0.23480E-06   616   0.473E-03    0.159E-03
DAV:  14    -0.872176803358E+03   -0.64014E-06   -0.92805E-07   528   0.193E-03
  15 F= -.87217680E+03 E0= -.87217680E+03  d E =-.132000E+00
       N       E                     dE             d eps       ncg     rms          rms(c)
DAV:   1    -0.872213397804E+03   -0.36595E-01   -0.18978E+01   704   0.830E+00    0.130E+00
DAV:   2    -0.872243603594E+03   -0.30206E-01   -0.40798E-01   800   0.111E+00    0.547E-01
DAV:   3    -0.872238773418E+03    0.48302E-02   -0.10501E-02   816   0.248E-01    0.316E-01
DAV:   4    -0.872237137067E+03    0.16364E-02   -0.10383E-02   816   0.280E-01    0.985E-02
DAV:   5    -0.872237224289E+03   -0.87222E-04   -0.29418E-03   808   0.112E-01    0.106E-01
DAV:   6    -0.872237133967E+03    0.90322E-04   -0.48176E-04   808   0.442E-02    0.607E-02
DAV:   7    -0.872237062235E+03    0.71732E-04   -0.63044E-05   864   0.309E-02    0.273E-02
DAV:   8    -0.872237021259E+03    0.40976E-04   -0.40677E-05   992   0.370E-02    0.870E-03
DAV:   9    -0.872237011398E+03    0.98609E-05   -0.41352E-05   976   0.335E-02    0.552E-03
DAV:  10    -0.872237013967E+03   -0.25691E-05   -0.24809E-05   792   0.162E-02    0.655E-03
DAV:  11    -0.872237015226E+03   -0.12590E-05   -0.54891E-06   760   0.463E-03    0.794E-03
DAV:  12    -0.872237015271E+03   -0.44653E-07   -0.15300E-07   520   0.762E-04
  16 F= -.87223702E+03 E0= -.87223702E+03  d E =-.602119E-01
       N       E                     dE             d eps       ncg     rms          rms(c)
DAV:   1    -0.872238540530E+03   -0.15253E-02   -0.26148E+00   704   0.308E+00    0.482E-01
DAV:   2    -0.872242701298E+03   -0.41608E-02   -0.56310E-02   800   0.415E-01    0.203E-01
DAV:   3    -0.872242028108E+03    0.67319E-03   -0.14396E-03   824   0.932E-02    0.118E-01
DAV:   4    -0.872241803094E+03    0.22501E-03   -0.15109E-03   816   0.107E-01    0.377E-02
DAV:   5    -0.872241813946E+03   -0.10853E-04   -0.42471E-04   808   0.422E-02    0.406E-02
DAV:   6    -0.872241800157E+03    0.13789E-04   -0.71025E-05   808   0.168E-02    0.230E-02
DAV:   7    -0.872241789346E+03    0.10811E-04   -0.11011E-05   816   0.126E-02    0.981E-03
DAV:   8    -0.872241783784E+03    0.55620E-05   -0.60678E-06   800   0.146E-02    0.353E-03
DAV:   9    -0.872241782675E+03    0.11088E-05   -0.70438E-06   816   0.136E-02    0.232E-03
DAV:  10    -0.872241783337E+03   -0.66129E-06   -0.41843E-06   728   0.615E-03
  17 F= -.87224178E+03 E0= -.87224178E+03  d E =-.649800E-01
       N       E                     dE             d eps       ncg     rms          rms(c)
DAV:   1    -0.872273844315E+03   -0.32062E-01   -0.17274E+01   704   0.792E+00    0.101E+00
DAV:   2    -0.872301292980E+03   -0.27449E-01   -0.35363E-01   800   0.105E+00    0.530E-01
DAV:   3    -0.872298055119E+03    0.32379E-02   -0.80201E-03   816   0.204E-01    0.318E-01
DAV:   4    -0.872296745560E+03    0.13096E-02   -0.92573E-03   792   0.233E-01    0.104E-01
DAV:   5    -0.872296688943E+03    0.56617E-04   -0.19883E-03   832   0.992E-02    0.949E-02
DAV:   6    -0.872296590983E+03    0.97960E-04   -0.67669E-04   808   0.571E-02    0.477E-02
DAV:   7    -0.872296543505E+03    0.47478E-04   -0.77090E-05   992   0.322E-02    0.222E-02
DAV:   8    -0.872296521985E+03    0.21520E-04   -0.51673E-05   952   0.333E-02    0.103E-02
DAV:   9    -0.872296532265E+03   -0.10281E-04   -0.43405E-05   808   0.215E-02    0.835E-03
DAV:  10    -0.872296540282E+03   -0.80167E-05   -0.10341E-05   816   0.776E-03    0.723E-03
DAV:  11    -0.872296546426E+03   -0.61442E-05   -0.18831E-06   560   0.454E-03    0.396E-03
DAV:  12    -0.872296555006E+03   -0.85797E-05   -0.40467E-06   672   0.650E-03    0.383E-03
DAV:  13    -0.872296557243E+03   -0.22374E-05   -0.40582E-06   720   0.514E-03    0.181E-03
DAV:  14    -0.872296557917E+03   -0.67396E-06   -0.44784E-07   512   0.133E-03
  18 F= -.87229656E+03 E0= -.87229656E+03  d E =-.547746E-01
       N       E                     dE             d eps       ncg     rms          rms(c)
DAV:   1    -0.872295825393E+03    0.73185E-03   -0.93923E+00   704   0.581E+00    0.747E-01
DAV:   2    -0.872310706836E+03   -0.14881E-01   -0.19147E-01   792   0.768E-01    0.391E-01
DAV:   3    -0.872308951200E+03    0.17556E-02   -0.43368E-03   824   0.150E-01    0.234E-01
DAV:   4    -0.872308242607E+03    0.70859E-03   -0.50731E-03   792   0.172E-01    0.774E-02
DAV:   5    -0.872308209173E+03    0.33434E-04   -0.10804E-03   824   0.734E-02    0.703E-02
DAV:   6    -0.872308156159E+03    0.53014E-04   -0.37226E-04   808   0.424E-02    0.353E-02
DAV:   7    -0.872308130524E+03    0.25635E-04   -0.41999E-05   992   0.243E-02    0.165E-02
DAV:   8    -0.872308119619E+03    0.10905E-04   -0.29801E-05   920   0.253E-02    0.780E-03
DAV:   9    -0.872308126071E+03   -0.64524E-05   -0.24813E-05   808   0.164E-02    0.634E-03
DAV:  10    -0.872308130576E+03   -0.45054E-05   -0.61160E-06   760   0.588E-03    0.574E-03
DAV:  11    -0.872308133826E+03   -0.32493E-05   -0.10780E-06   528   0.322E-03    0.313E-03
DAV:  12    -0.872308138873E+03   -0.50477E-05   -0.27179E-06   632   0.498E-03    0.320E-03
DAV:  13    -0.872308139986E+03   -0.11130E-05   -0.24589E-06   656   0.409E-03    0.141E-03
DAV:  14    -0.872308140448E+03   -0.46151E-06   -0.35144E-07   512   0.115E-03
  19 F= -.87230814E+03 E0= -.87230814E+03  d E =-.663571E-01
       N       E                     dE             d eps       ncg     rms          rms(c)
DAV:   1    -0.872322376250E+03   -0.14236E-01   -0.24069E+01   704   0.942E+00    0.121E+00
DAV:   2    -0.872363909955E+03   -0.41534E-01   -0.50249E-01   792   0.124E+00    0.561E-01
DAV:   3    -0.872359578283E+03    0.43317E-02   -0.94380E-03   824   0.230E-01    0.339E-01
DAV:   4    -0.872357957268E+03    0.16210E-02   -0.12195E-02   808   0.285E-01    0.104E-01
DAV:   5    -0.872358035554E+03   -0.78286E-04   -0.30941E-03   808   0.113E-01    0.110E-01
DAV:   6    -0.872357961522E+03    0.74032E-04   -0.47603E-04   808   0.444E-02    0.664E-02
DAV:   7    -0.872357916526E+03    0.44996E-04   -0.14615E-04   784   0.311E-02    0.265E-02
DAV:   8    -0.872357912930E+03    0.35957E-05   -0.50440E-05   840   0.236E-02    0.960E-03
DAV:   9    -0.872357914980E+03   -0.20497E-05   -0.21975E-05   856   0.146E-02    0.803E-03
DAV:  10    -0.872357916343E+03   -0.13635E-05   -0.57753E-06   792   0.567E-03    0.495E-03
DAV:  11    -0.872357918716E+03   -0.23731E-05   -0.17035E-06   544   0.663E-03    0.284E-03
DAV:  12    -0.872357921808E+03   -0.30918E-05   -0.33628E-06   624   0.821E-03    0.395E-03
DAV:  13    -0.872357923069E+03   -0.12605E-05   -0.37288E-06   696   0.551E-03    0.147E-03
DAV:  14    -0.872357923373E+03   -0.30453E-06   -0.56528E-07   528   0.145E-03
  20 F= -.87235792E+03 E0= -.87235792E+03  d E =-.497829E-01
       N       E                     dE             d eps       ncg     rms          rms(c)
DAV:   1    -0.872354531377E+03    0.33917E-02   -0.70793E+00   704   0.510E+00    0.656E-01
DAV:   2    -0.872366716226E+03   -0.12185E-01   -0.14783E-01   792   0.671E-01    0.305E-01
DAV:   3    -0.872365436665E+03    0.12796E-02   -0.27745E-03   824   0.125E-01    0.185E-01
DAV:   4    -0.872364965417E+03    0.47125E-03   -0.37170E-03   808   0.157E-01    0.583E-02
DAV:   5    -0.872364985577E+03   -0.20160E-04   -0.92965E-04   808   0.618E-02    0.612E-02
DAV:   6    -0.872364962194E+03    0.23383E-04   -0.14717E-04   808   0.245E-02    0.363E-02
DAV:   7    -0.872364948619E+03    0.13575E-04   -0.47497E-05   792   0.177E-02    0.142E-02
DAV:   8    -0.872364948000E+03    0.61891E-06   -0.15925E-05   824   0.131E-02    0.545E-03
DAV:   9    -0.872364948785E+03   -0.78446E-06   -0.67646E-06   768   0.793E-03
  21 F= -.87236495E+03 E0= -.87236495E+03  d E =-.568083E-01
       N       E                     dE             d eps       ncg     rms          rms(c)
DAV:   1    -0.872384627850E+03   -0.19680E-01   -0.18059E+01   704   0.814E+00    0.883E-01
DAV:   2    -0.872416944814E+03   -0.32317E-01   -0.37513E-01   792   0.106E+00    0.459E-01
DAV:   3    -0.872414383064E+03    0.25617E-02   -0.66527E-03   816   0.185E-01    0.283E-01
DAV:   4    -0.872413190902E+03    0.11922E-02   -0.77612E-03   808   0.227E-01    0.852E-02
DAV:   5    -0.872413239510E+03   -0.48608E-04   -0.18923E-03   808   0.919E-02    0.836E-02
DAV:   6    -0.872413195572E+03    0.43937E-04   -0.38791E-04   808   0.424E-02    0.467E-02
DAV:   7    -0.872413177628E+03    0.17944E-04   -0.55133E-05   784   0.201E-02    0.215E-02
DAV:   8    -0.872413173473E+03    0.41547E-05   -0.30314E-05   864   0.199E-02    0.701E-03
DAV:   9    -0.872413175341E+03   -0.18674E-05   -0.16903E-05   880   0.127E-02    0.639E-03
DAV:  10    -0.872413175968E+03   -0.62735E-06   -0.36193E-06   656   0.395E-03
  22 F= -.87241318E+03 E0= -.87241318E+03  d E =-.482272E-01
       N       E                     dE             d eps       ncg     rms          rms(c)
DAV:   1    -0.872386434369E+03    0.26741E-01   -0.31355E+01   704   0.107E+01    0.116E+00
DAV:   2    -0.872442637249E+03   -0.56203E-01   -0.65365E-01   800   0.141E+00    0.604E-01
DAV:   3    -0.872438193316E+03    0.44439E-02   -0.11672E-02   816   0.246E-01    0.373E-01
DAV:   4    -0.872436045367E+03    0.21479E-02   -0.13420E-02   808   0.299E-01    0.112E-01
DAV:   5    -0.872436133686E+03   -0.88320E-04   -0.33149E-03   808   0.122E-01    0.110E-01
DAV:   6    -0.872436055777E+03    0.77909E-04   -0.67670E-04   816   0.561E-02    0.618E-02
DAV:   7    -0.872436022801E+03    0.32976E-04   -0.92928E-05   784   0.271E-02    0.285E-02
DAV:   8    -0.872436015305E+03    0.74964E-05   -0.53207E-05   864   0.284E-02    0.924E-03
DAV:   9    -0.872436020837E+03   -0.55320E-05   -0.33414E-05   912   0.190E-02    0.855E-03
DAV:  10    -0.872436023094E+03   -0.22567E-05   -0.85444E-06   768   0.606E-03    0.792E-03
DAV:  11    -0.872436024758E+03   -0.16646E-05   -0.12201E-06   488   0.319E-03    0.459E-03
DAV:  12    -0.872436031544E+03   -0.67857E-05   -0.93943E-06   720   0.117E-02    0.605E-03
DAV:  13    -0.872436032584E+03   -0.10402E-05   -0.67294E-06   736   0.740E-03    0.244E-03
DAV:  14    -0.872436033294E+03   -0.71017E-06   -0.10390E-06   512   0.214E-03
  23 F= -.87243603E+03 E0= -.87243603E+03  d E =-.710845E-01
       N       E                     dE             d eps       ncg     rms          rms(c)
DAV:   1    -0.872440775577E+03   -0.47430E-02   -0.21739E+01   704   0.896E+00    0.103E+00
DAV:   2    -0.872478382515E+03   -0.37607E-01   -0.44812E-01   800   0.117E+00    0.490E-01
DAV:   3    -0.872475165646E+03    0.32169E-02   -0.87473E-03   808   0.208E-01    0.298E-01
DAV:   4    -0.872473529524E+03    0.16361E-02   -0.83835E-03   808   0.240E-01    0.865E-02
DAV:   5    -0.872473604583E+03   -0.75060E-04   -0.21940E-03   816   0.101E-01    0.883E-02
DAV:   6    -0.872473557095E+03    0.47488E-04   -0.39448E-04   816   0.424E-02    0.543E-02
DAV:   7    -0.872473529314E+03    0.27781E-04   -0.48819E-05   776   0.209E-02    0.258E-02
DAV:   8    -0.872473521891E+03    0.74239E-05   -0.35560E-05   896   0.255E-02    0.732E-03
DAV:   9    -0.872473532843E+03   -0.10953E-04   -0.31380E-05   880   0.197E-02    0.735E-03
DAV:  10    -0.872473537481E+03   -0.46383E-05   -0.96784E-06   808   0.650E-03    0.730E-03
DAV:  11    -0.872473539340E+03   -0.18582E-05   -0.88083E-07   504   0.234E-03    0.480E-03
DAV:  12    -0.872473547110E+03   -0.77702E-05   -0.52111E-06   688   0.721E-03    0.372E-03
DAV:  13    -0.872473547705E+03   -0.59474E-06   -0.14207E-06   528   0.315E-03
  24 F= -.87247355E+03 E0= -.87247355E+03  d E =-.375144E-01
       N       E                     dE             d eps       ncg     rms          rms(c)
DAV:   1    -0.872471736541E+03    0.18106E-02   -0.34033E+00   704   0.355E+00    0.407E-01
DAV:   2    -0.872477538089E+03   -0.58015E-02   -0.69518E-02   800   0.463E-01    0.193E-01
DAV:   3    -0.872477055038E+03    0.48305E-03   -0.13563E-03   808   0.817E-02    0.117E-01
DAV:   4    -0.872476802782E+03    0.25226E-03   -0.13168E-03   808   0.947E-02    0.342E-02
DAV:   5    -0.872476813987E+03   -0.11205E-04   -0.34042E-04   816   0.397E-02    0.348E-02
DAV:   6    -0.872476806681E+03    0.73066E-05   -0.62886E-05   816   0.169E-02    0.212E-02
DAV:   7    -0.872476802621E+03    0.40595E-05   -0.75655E-06   784   0.850E-03    0.100E-02
DAV:   8    -0.872476801939E+03    0.68221E-06   -0.54315E-06   720   0.102E-02
  25 F= -.87247680E+03 E0= -.87247680E+03  d E =-.407686E-01
       N       E                     dE             d eps       ncg     rms          rms(c)
DAV:   1    -0.872483421759E+03   -0.66191E-02   -0.15377E+01   704   0.755E+00    0.862E-01
DAV:   2    -0.872509050149E+03   -0.25628E-01   -0.31108E-01   816   0.978E-01    0.415E-01
DAV:   3    -0.872506935500E+03    0.21146E-02   -0.62115E-03   816   0.178E-01    0.254E-01
DAV:   4    -0.872505914303E+03    0.10212E-02   -0.63242E-03   800   0.208E-01    0.793E-02
DAV:   5    -0.872505955818E+03   -0.41516E-04   -0.15714E-03   824   0.859E-02    0.781E-02
DAV:   6    -0.872505917560E+03    0.38258E-04   -0.32306E-04   808   0.387E-02    0.459E-02
DAV:   7    -0.872505901896E+03    0.15664E-04   -0.42807E-05   784   0.190E-02    0.207E-02
DAV:   8    -0.872505900381E+03    0.15154E-05   -0.27152E-05   896   0.203E-02    0.651E-03
DAV:   9    -0.872505908133E+03   -0.77518E-05   -0.17887E-05   888   0.147E-02    0.578E-03
DAV:  10    -0.872505911182E+03   -0.30489E-05   -0.48630E-06   720   0.475E-03    0.541E-03
DAV:  11    -0.872505913892E+03   -0.27109E-05   -0.96307E-07   496   0.290E-03    0.284E-03
DAV:  12    -0.872505918789E+03   -0.48968E-05   -0.31328E-06   632   0.651E-03    0.334E-03
DAV:  13    -0.872505919538E+03   -0.74891E-06   -0.20708E-06   592   0.380E-03
  26 F= -.87250592E+03 E0= -.87250592E+03  d E =-.291176E-01
       N       E                     dE             d eps       ncg     rms          rms(c)
DAV:   1    -0.872503514385E+03    0.24044E-02   -0.44059E+00   704   0.405E+00    0.462E-01
DAV:   2    -0.872510812473E+03   -0.72981E-02   -0.88838E-02   808   0.524E-01    0.222E-01
DAV:   3    -0.872510228660E+03    0.58381E-03   -0.17780E-03   816   0.954E-02    0.136E-01
DAV:   4    -0.872509937376E+03    0.29128E-03   -0.17800E-03   800   0.111E-01    0.418E-02
DAV:   5    -0.872509950763E+03   -0.13387E-04   -0.45290E-04   824   0.460E-02    0.416E-02
DAV:   6    -0.872509939903E+03    0.10861E-04   -0.89265E-05   808   0.203E-02    0.248E-02
DAV:   7    -0.872509935204E+03    0.46991E-05   -0.12127E-05   792   0.101E-02    0.112E-02
DAV:   8    -0.872509934650E+03    0.55379E-06   -0.75818E-06   776   0.109E-02
  27 F= -.87250993E+03 E0= -.87250993E+03  d E =-.331327E-01
       N       E                     dE             d eps       ncg     rms          rms(c)
DAV:   1    -0.872506816641E+03    0.31186E-02   -0.20016E+01   704   0.867E+00    0.947E-01
DAV:   2    -0.872541042003E+03   -0.34225E-01   -0.40795E-01   784   0.112E+00    0.465E-01
DAV:   3    -0.872538485221E+03    0.25568E-02   -0.79039E-03   824   0.198E-01    0.288E-01
DAV:   4    -0.872537231076E+03    0.12541E-02   -0.83338E-03   808   0.236E-01    0.933E-02
DAV:   5    -0.872537285528E+03   -0.54452E-04   -0.19502E-03   808   0.935E-02    0.880E-02
DAV:   6    -0.872537235774E+03    0.49755E-04   -0.45426E-04   816   0.456E-02    0.475E-02
DAV:   7    -0.872537221799E+03    0.13974E-04   -0.64196E-05   784   0.211E-02    0.204E-02
DAV:   8    -0.872537223013E+03   -0.12134E-05   -0.29062E-05   832   0.192E-02    0.725E-03
DAV:   9    -0.872537227984E+03   -0.49709E-05   -0.16286E-05   872   0.117E-02    0.705E-03
DAV:  10    -0.872537229167E+03   -0.11836E-05   -0.24626E-06   592   0.323E-03    0.566E-03
DAV:  11    -0.872537231600E+03   -0.24329E-05   -0.17135E-06   496   0.356E-03    0.237E-03
DAV:  12    -0.872537235775E+03   -0.41747E-05   -0.34859E-06   664   0.664E-03    0.396E-03
DAV:  13    -0.872537236671E+03   -0.89630E-06   -0.25049E-06   576   0.544E-03
  28 F= -.87253724E+03 E0= -.87253724E+03  d E =-.273020E-01
       N       E                     dE             d eps       ncg     rms          rms(c)
DAV:   1    -0.872534127754E+03    0.31080E-02   -0.40437E+00   704   0.389E+00    0.426E-01
DAV:   2    -0.872540966846E+03   -0.68391E-02   -0.81799E-02   784   0.501E-01    0.209E-01
DAV:   3    -0.872540465459E+03    0.50139E-03   -0.15763E-03   824   0.881E-02    0.129E-01
DAV:   4    -0.872540209588E+03    0.25587E-03   -0.16677E-03   816   0.105E-01    0.415E-02
DAV:   5    -0.872540220149E+03   -0.10560E-04   -0.39037E-04   800   0.418E-02    0.393E-02
DAV:   6    -0.872540210375E+03    0.97735E-05   -0.90923E-05   816   0.204E-02    0.213E-02
DAV:   7    -0.872540207606E+03    0.27695E-05   -0.12453E-05   800   0.959E-03    0.910E-03
DAV:   8    -0.872540208041E+03   -0.43520E-06   -0.60602E-06   752   0.906E-03
  29 F= -.87254021E+03 E0= -.87254021E+03  d E =-.302734E-01
       N       E                     dE             d eps       ncg     rms          rms(c)
DAV:   1    -0.872527973458E+03    0.12234E-01   -0.21093E+01   704   0.890E+00    0.985E-01
DAV:   2    -0.872565274928E+03   -0.37301E-01   -0.44035E-01   792   0.116E+00    0.466E-01
DAV:   3    -0.872562564975E+03    0.27100E-02   -0.85358E-03   832   0.202E-01    0.288E-01
DAV:   4    -0.872561144280E+03    0.14207E-02   -0.83441E-03   808   0.237E-01    0.924E-02
DAV:   5    -0.872561208013E+03   -0.63732E-04   -0.20671E-03   816   0.976E-02    0.900E-02
DAV:   6    -0.872561155498E+03    0.52514E-04   -0.44155E-04   808   0.452E-02    0.508E-02
DAV:   7    -0.872561130880E+03    0.24618E-04   -0.77517E-05   808   0.246E-02    0.212E-02
DAV:   8    -0.872561126292E+03    0.45881E-05   -0.34178E-05   864   0.225E-02    0.816E-03
DAV:   9    -0.872561128728E+03   -0.24365E-05   -0.22317E-05   808   0.143E-02    0.773E-03
DAV:  10    -0.872561129282E+03   -0.55420E-06   -0.38161E-06   624   0.401E-03
  30 F= -.87256113E+03 E0= -.87256113E+03  d E =-.209212E-01
       N       E                     dE             d eps       ncg     rms          rms(c)
DAV:   1    -0.872560914601E+03    0.21413E-03   -0.27923E-01   720   0.103E+00    0.112E-01
DAV:   2    -0.872561399677E+03   -0.48508E-03   -0.57905E-03   792   0.134E-01    0.538E-02
DAV:   3    -0.872561361002E+03    0.38675E-04   -0.11517E-04   832   0.238E-02    0.333E-02
DAV:   4    -0.872561339876E+03    0.21126E-04   -0.10830E-04   792   0.283E-02    0.106E-02
DAV:   5    -0.872561341224E+03   -0.13485E-05   -0.31523E-05   808   0.123E-02    0.108E-02
DAV:   6    -0.872561340634E+03    0.59052E-06   -0.57060E-06   776   0.517E-03
  31 F= -.87256134E+03 E0= -.87256134E+03  d E =-.211326E-01
       N       E                     dE             d eps       ncg     rms          rms(c)
DAV:   1    -0.872554651363E+03    0.66899E-02   -0.12951E+01   704   0.698E+00    0.712E-01
DAV:   2    -0.872578194736E+03   -0.23543E-01   -0.27307E-01   792   0.915E-01    0.355E-01
DAV:   3    -0.872576636012E+03    0.15587E-02   -0.52418E-03   824   0.158E-01    0.222E-01
DAV:   4    -0.872575671095E+03    0.96492E-03   -0.49025E-03   808   0.183E-01    0.724E-02
DAV:   5    -0.872575694314E+03   -0.23219E-04   -0.12034E-03   816   0.760E-02    0.690E-02
DAV:   6    -0.872575656413E+03    0.37900E-04   -0.30616E-04   808   0.388E-02    0.377E-02
DAV:   7    -0.872575640536E+03    0.15877E-04   -0.42790E-05   800   0.184E-02    0.165E-02
DAV:   8    -0.872575635129E+03    0.54077E-05   -0.24441E-05   856   0.190E-02    0.696E-03
DAV:   9    -0.872575638976E+03   -0.38472E-05   -0.16954E-05   840   0.127E-02    0.630E-03
DAV:  10    -0.872575640318E+03   -0.13426E-05   -0.36090E-06   648   0.388E-03    0.545E-03
DAV:  11    -0.872575642342E+03   -0.20239E-05   -0.13119E-06   496   0.304E-03    0.287E-03
DAV:  12    -0.872575647261E+03   -0.49189E-05   -0.31104E-06   632   0.572E-03    0.353E-03
DAV:  13    -0.872575648857E+03   -0.15962E-05   -0.21251E-06   560   0.466E-03    0.116E-03
DAV:  14    -0.872575649295E+03   -0.43742E-06   -0.65270E-07   520   0.158E-03
  32 F= -.87257565E+03 E0= -.87257565E+03  d E =-.143087E-01
       N       E                     dE             d eps       ncg     rms          rms(c)
DAV:   1    -0.872575443908E+03    0.20495E-03   -0.27139E-01   720   0.101E+00    0.103E-01
DAV:   2    -0.872575933202E+03   -0.48929E-03   -0.56776E-03   792   0.132E-01    0.512E-02
DAV:   3    -0.872575900347E+03    0.32855E-04   -0.10851E-04   832   0.227E-02    0.319E-02
DAV:   4    -0.872575880091E+03    0.20257E-04   -0.10160E-04   816   0.264E-02    0.103E-02
DAV:   5    -0.872575880578E+03   -0.48774E-06   -0.25064E-05   824   0.110E-02    0.997E-03
DAV:   6    -0.872575879822E+03    0.75606E-06   -0.62179E-06   792   0.553E-03
  33 F= -.87257588E+03 E0= -.87257588E+03  d E =-.145392E-01
       N       E                     dE             d eps       ncg     rms          rms(c)
DAV:   1    -0.872573431106E+03    0.24495E-02   -0.77490E+00   704   0.538E+00    0.580E-01
DAV:   2    -0.872587160638E+03   -0.13730E-01   -0.16003E-01   808   0.706E-01    0.264E-01
DAV:   3    -0.872586068840E+03    0.10918E-02   -0.29430E-03   832   0.123E-01    0.162E-01
DAV:   4    -0.872585413505E+03    0.65533E-03   -0.30235E-03   792   0.147E-01    0.510E-02
DAV:   5    -0.872585442808E+03   -0.29303E-04   -0.83669E-04   824   0.617E-02    0.550E-02
DAV:   6    -0.872585423281E+03    0.19527E-04   -0.12240E-04   816   0.236E-02    0.361E-02
DAV:   7    -0.872585407187E+03    0.16094E-04   -0.32862E-05   792   0.166E-02    0.152E-02
DAV:   8    -0.872585403427E+03    0.37600E-05   -0.22010E-05   872   0.172E-02    0.626E-03
DAV:   9    -0.872585406183E+03   -0.27559E-05   -0.16017E-05   816   0.116E-02    0.642E-03
DAV:  10    -0.872585406766E+03   -0.58304E-06   -0.30261E-06   616   0.375E-03
  34 F= -.87258541E+03 E0= -.87258541E+03  d E =-.952694E-02
       N       E                     dE             d eps       ncg     rms          rms(c)
DAV:   1    -0.872585258260E+03    0.14792E-03   -0.23153E-01   720   0.929E-01    0.995E-02
DAV:   2    -0.872585662219E+03   -0.40396E-03   -0.47470E-03   816   0.122E-01    0.455E-02
DAV:   3    -0.872585629030E+03    0.33190E-04   -0.91156E-05   832   0.214E-02    0.281E-02
DAV:   4    -0.872585608425E+03    0.20605E-04   -0.85515E-05   816   0.249E-02    0.874E-03
DAV:   5    -0.872585609332E+03   -0.90690E-06   -0.24648E-05   808   0.109E-02    0.943E-03
DAV:   6    -0.872585608872E+03    0.45934E-06   -0.38676E-06   736   0.433E-03
  35 F= -.87258561E+03 E0= -.87258561E+03  d E =-.972905E-02
       N       E                     dE             d eps       ncg     rms          rms(c)
DAV:   1    -0.872582333364E+03    0.32760E-02   -0.76178E+00   712   0.532E+00    0.539E-01
DAV:   2    -0.872595602364E+03   -0.13269E-01   -0.15349E-01   808   0.691E-01    0.254E-01
DAV:   3    -0.872594603067E+03    0.99930E-03   -0.28460E-03   824   0.118E-01    0.159E-01
DAV:   4    -0.872593993907E+03    0.60916E-03   -0.28863E-03   808   0.141E-01    0.499E-02
DAV:   5    -0.872594024827E+03   -0.30920E-04   -0.74271E-04   800   0.577E-02    0.510E-02
DAV:   6    -0.872594009394E+03    0.15433E-04   -0.13272E-04   824   0.249E-02    0.302E-02
DAV:   7    -0.872594003480E+03    0.59141E-05   -0.26992E-05   784   0.137E-02    0.127E-02
DAV:   8    -0.872594003979E+03   -0.49919E-06   -0.12381E-05   816   0.124E-02    0.481E-03
DAV:   9    -0.872594005816E+03   -0.18369E-05   -0.75820E-06   792   0.783E-03    0.497E-03
DAV:  10    -0.872594006111E+03   -0.29559E-06   -0.13138E-06   528   0.251E-03
  36 F= -.87259401E+03 E0= -.87259401E+03  d E =-.839724E-02
       N       E                     dE             d eps       ncg     rms          rms(c)
DAV:   1    -0.872593802341E+03    0.20347E-03   -0.29543E-01   728   0.105E+00    0.106E-01
DAV:   2    -0.872594310821E+03   -0.50848E-03   -0.59135E-03   808   0.136E-01    0.499E-02
DAV:   3    -0.872594271436E+03    0.39384E-04   -0.11170E-04   832   0.234E-02    0.313E-02
DAV:   4    -0.872594246714E+03    0.24723E-04   -0.10765E-04   808   0.277E-02    0.966E-03
DAV:   5    -0.872594248161E+03   -0.14471E-05   -0.29920E-05   792   0.117E-02    0.101E-02
DAV:   6    -0.872594247660E+03    0.50100E-06   -0.49373E-06   784   0.484E-03
  37 F= -.87259425E+03 E0= -.87259425E+03  d E =-.863879E-02
       N       E                     dE             d eps       ncg     rms          rms(c)
DAV:   1    -0.872592594969E+03    0.16532E-02   -0.49074E+00   712   0.431E+00    0.434E-01
DAV:   2    -0.872601425968E+03   -0.88310E-02   -0.10121E-01   800   0.566E-01    0.204E-01
DAV:   3    -0.872600771381E+03    0.65459E-03   -0.18340E-03   824   0.965E-02    0.128E-01
DAV:   4    -0.872600347796E+03    0.42358E-03   -0.19466E-03   800   0.123E-01    0.411E-02
DAV:   5    -0.872600369658E+03   -0.21862E-04   -0.56089E-04   816   0.496E-02    0.446E-02
DAV:   6    -0.872600355552E+03    0.14106E-04   -0.74146E-05   816   0.180E-02    0.290E-02
DAV:   7    -0.872600344747E+03    0.10806E-04   -0.26197E-05   792   0.128E-02    0.117E-02
DAV:   8    -0.872600342219E+03    0.25280E-05   -0.13278E-05   840   0.124E-02    0.500E-03
DAV:   9    -0.872600343721E+03   -0.15018E-05   -0.86585E-06   808   0.901E-03    0.495E-03
DAV:  10    -0.872600344486E+03   -0.76543E-06   -0.24026E-06   600   0.383E-03
  38 F= -.87260034E+03 E0= -.87260034E+03  d E =-.609683E-02
       N       E                     dE             d eps       ncg     rms          rms(c)
DAV:   1    -0.872600179663E+03    0.16406E-03   -0.23858E-01   712   0.949E-01    0.951E-02
DAV:   2    -0.872600604013E+03   -0.42435E-03   -0.48948E-03   808   0.125E-01    0.450E-02
DAV:   3    -0.872600571484E+03    0.32530E-04   -0.90703E-05   832   0.213E-02    0.283E-02
DAV:   4    -0.872600549658E+03    0.21825E-04   -0.91272E-05   808   0.269E-02    0.897E-03
DAV:   5    -0.872600550833E+03   -0.11747E-05   -0.27681E-05   792   0.112E-02    0.979E-03
DAV:   6    -0.872600550218E+03    0.61539E-06   -0.35704E-06   696   0.408E-03
  39 F= -.87260055E+03 E0= -.87260055E+03  d E =-.630256E-02
       N       E                     dE             d eps       ncg     rms          rms(c)
DAV:   1    -0.872597792873E+03    0.27580E-02   -0.48326E+00   712   0.429E+00    0.434E-01
DAV:   2    -0.872606596806E+03   -0.88039E-02   -0.10006E-01   800   0.567E-01    0.209E-01
DAV:   3    -0.872605981280E+03    0.61553E-03   -0.18611E-03   832   0.968E-02    0.131E-01
DAV:   4    -0.872605638759E+03    0.34252E-03   -0.21189E-03   808   0.120E-01    0.456E-02
DAV:   5    -0.872605647702E+03   -0.89436E-05   -0.47758E-04   808   0.479E-02    0.450E-02
DAV:   6    -0.872605634217E+03    0.13485E-04   -0.10741E-04   808   0.225E-02    0.254E-02
DAV:   7    -0.872605628604E+03    0.56134E-05   -0.22860E-05   808   0.133E-02    0.110E-02
DAV:   8    -0.872605628252E+03    0.35171E-06   -0.10977E-05   832   0.108E-02    0.458E-03
DAV:   9    -0.872605628865E+03   -0.61237E-06   -0.45675E-06   712   0.531E-03
  40 F= -.87260563E+03 E0= -.87260563E+03  d E =-.507865E-02
       N       E                     dE             d eps       ncg     rms          rms(c)
DAV:   1    -0.872605527548E+03    0.10070E-03   -0.10644E-01   728   0.638E-01    0.636E-02
DAV:   2    -0.872605719747E+03   -0.19220E-03   -0.21900E-03   800   0.838E-02    0.308E-02
DAV:   3    -0.872605705647E+03    0.14100E-04   -0.40090E-05   832   0.144E-02    0.194E-02
DAV:   4    -0.872605697365E+03    0.82817E-05   -0.45815E-05   800   0.181E-02    0.663E-03
DAV:   5    -0.872605697736E+03   -0.37124E-06   -0.11650E-05   800   0.749E-03    0.675E-03
DAV:   6    -0.872605697474E+03    0.26273E-06   -0.18853E-06   520   0.319E-03
  41 F= -.87260570E+03 E0= -.87260570E+03  d E =-.514726E-02
       N       E                     dE             d eps       ncg     rms          rms(c)
DAV:   1    -0.872603177445E+03    0.25203E-02   -0.40867E+00   704   0.398E+00    0.402E-01
DAV:   2    -0.872610792230E+03   -0.76148E-02   -0.85909E-02   808   0.525E-01    0.190E-01
DAV:   3    -0.872610280713E+03    0.51152E-03   -0.15065E-03   824   0.879E-02    0.120E-01
DAV:   4    -0.872609973861E+03    0.30685E-03   -0.18021E-03   808   0.118E-01    0.412E-02
DAV:   5    -0.872609989613E+03   -0.15751E-04   -0.47721E-04   800   0.464E-02    0.425E-02
DAV:   6    -0.872609977095E+03    0.12518E-04   -0.75319E-05   816   0.181E-02    0.252E-02
DAV:   7    -0.872609969000E+03    0.80954E-05   -0.26830E-05   800   0.134E-02    0.969E-03
DAV:   8    -0.872609967727E+03    0.12724E-05   -0.11524E-05   864   0.116E-02    0.484E-03
DAV:   9    -0.872609968001E+03   -0.27385E-06   -0.62584E-06   784   0.755E-03
  42 F= -.87260997E+03 E0= -.87260997E+03  d E =-.427053E-02
       N       E                     dE             d eps       ncg     rms          rms(c)
DAV:   1    -0.872609655634E+03    0.31209E-03   -0.28993E-01   704   0.106E+00    0.106E-01
DAV:   2    -0.872610190890E+03   -0.53526E-03   -0.60511E-03   808   0.140E-01    0.504E-02
DAV:   3    -0.872610153799E+03    0.37091E-04   -0.10549E-04   840   0.235E-02    0.318E-02
DAV:   4    -0.872610130074E+03    0.23726E-04   -0.12400E-04   824   0.322E-02    0.106E-02
DAV:   5    -0.872610131591E+03   -0.15170E-05   -0.37013E-05   800   0.129E-02    0.114E-02
DAV:   6    -0.872610130718E+03    0.87260E-06   -0.46550E-06   752   0.451E-03
  43 F= -.87261013E+03 E0= -.87261013E+03  d E =-.443324E-02
       N       E                     dE             d eps       ncg     rms          rms(c)
DAV:   1    -0.872607804849E+03    0.23267E-02   -0.36020E+00   704   0.377E+00    0.380E-01
DAV:   2    -0.872614433077E+03   -0.66282E-02   -0.75626E-02   800   0.499E-01    0.181E-01
DAV:   3    -0.872613973403E+03    0.45967E-03   -0.14227E-03   832   0.865E-02    0.114E-01
DAV:   4    -0.872613689649E+03    0.28375E-03   -0.15336E-03   808   0.109E-01    0.388E-02
DAV:   5    -0.872613701969E+03   -0.12321E-04   -0.41298E-04   808   0.441E-02    0.413E-02
DAV:   6    -0.872613690657E+03    0.11313E-04   -0.64298E-05   808   0.173E-02    0.270E-02
DAV:   7    -0.872613680991E+03    0.96659E-05   -0.23921E-05   808   0.142E-02    0.105E-02
DAV:   8    -0.872613679092E+03    0.18990E-05   -0.11696E-05   832   0.119E-02    0.421E-03
DAV:   9    -0.872613679247E+03   -0.15555E-06   -0.67402E-06   776   0.765E-03
  44 F= -.87261368E+03 E0= -.87261368E+03  d E =-.354853E-02
       N       E                     dE             d eps       ncg     rms          rms(c)
DAV:   1    -0.872613544597E+03    0.13449E-03   -0.11794E-01   704   0.682E-01    0.679E-02
DAV:   2    -0.872613759526E+03   -0.21493E-03   -0.24623E-03   800   0.901E-02    0.325E-02
DAV:   3    -0.872613743701E+03    0.15825E-04   -0.46692E-05   832   0.159E-02    0.205E-02
DAV:   4    -0.872613733118E+03    0.10584E-04   -0.47700E-05   800   0.199E-02    0.685E-03
DAV:   5    -0.872613733658E+03   -0.53999E-06   -0.15237E-05   808   0.861E-03    0.760E-03
DAV:   6    -0.872613733295E+03    0.36306E-06   -0.18076E-06   512   0.312E-03
  45 F= -.87261373E+03 E0= -.87261373E+03  d E =-.360258E-02
       N       E                     dE             d eps       ncg     rms          rms(c)
DAV:   1    -0.872611942227E+03    0.17914E-02   -0.29794E+00   704   0.344E+00    0.330E-01
DAV:   2    -0.872617512537E+03   -0.55703E-02   -0.62863E-02   800   0.455E-01    0.166E-01
DAV:   3    -0.872617178064E+03    0.33447E-03   -0.11429E-03   816   0.744E-02    0.106E-01
DAV:   4    -0.872616969176E+03    0.20889E-03   -0.12458E-03   808   0.962E-02    0.359E-02
DAV:   5    -0.872616978676E+03   -0.94999E-05   -0.30562E-04   800   0.376E-02    0.358E-02
DAV:   6    -0.872616969516E+03    0.91592E-05   -0.64615E-05   808   0.175E-02    0.199E-02
DAV:   7    -0.872616965571E+03    0.39455E-05   -0.17210E-05   800   0.107E-02    0.783E-03
DAV:   8    -0.872616965526E+03    0.44412E-07   -0.72126E-06   800   0.836E-03
  46 F= -.87261697E+03 E0= -.87261697E+03  d E =-.323223E-02
       N       E                     dE             d eps       ncg     rms          rms(c)
DAV:   1    -0.872616730297E+03    0.23527E-03   -0.27156E-01   704   0.104E+00    0.989E-02
DAV:   2    -0.872617236144E+03   -0.50585E-03   -0.57035E-03   808   0.137E-01    0.498E-02
DAV:   3    -0.872617204810E+03    0.31334E-04   -0.10152E-04   824   0.222E-02    0.317E-02
DAV:   4    -0.872617184649E+03    0.20160E-04   -0.11162E-04   816   0.293E-02    0.106E-02
DAV:   5    -0.872617185813E+03   -0.11632E-05   -0.29687E-05   800   0.118E-02    0.107E-02
DAV:   6    -0.872617185129E+03    0.68415E-06   -0.53274E-06   768   0.502E-03
  47 F= -.87261719E+03 E0= -.87261719E+03  d E =-.345183E-02
       N       E                     dE             d eps       ncg     rms          rms(c)
DAV:   1    -0.872616517096E+03    0.66872E-03   -0.19582E+00   704   0.280E+00    0.296E-01
DAV:   2    -0.872620251859E+03   -0.37348E-02   -0.42694E-02   800   0.378E-01    0.139E-01
DAV:   3    -0.872620000405E+03    0.25145E-03   -0.79676E-04   824   0.646E-02    0.876E-02
DAV:   4    -0.872619857778E+03    0.14263E-03   -0.94263E-04   808   0.837E-02    0.316E-02
DAV:   5    -0.872619861179E+03   -0.34004E-05   -0.22889E-04   816   0.334E-02    0.318E-02
DAV:   6    -0.872619853942E+03    0.72368E-05   -0.45831E-05   808   0.146E-02    0.185E-02
DAV:   7    -0.872619849717E+03    0.42246E-05   -0.13790E-05   808   0.104E-02    0.738E-03
DAV:   8    -0.872619849198E+03    0.51907E-06   -0.66385E-06   808   0.852E-03
  48 F= -.87261985E+03 E0= -.87261985E+03  d E =-.266407E-02
       N       E                     dE             d eps       ncg     rms          rms(c)
DAV:   1    -0.872619758577E+03    0.91140E-04   -0.14215E-01   704   0.756E-01    0.789E-02
DAV:   2    -0.872620028670E+03   -0.27009E-03   -0.30876E-03   808   0.101E-01    0.372E-02
DAV:   3    -0.872620009365E+03    0.19305E-04   -0.56282E-05   832   0.173E-02    0.235E-02
DAV:   4    -0.872619997758E+03    0.11607E-04   -0.67680E-05   808   0.228E-02    0.842E-03
DAV:   5    -0.872619998115E+03   -0.35702E-06   -0.18059E-05   808   0.943E-03    0.861E-03
DAV:   6    -0.872619997609E+03    0.50587E-06   -0.29182E-06   560   0.386E-03
  49 F= -.87262000E+03 E0= -.87262000E+03  d E =-.281248E-02
       N       E                     dE             d eps       ncg     rms          rms(c)
DAV:   1    -0.872619140195E+03    0.85792E-03   -0.18122E+00   704   0.270E+00    0.287E-01
DAV:   2    -0.872622604633E+03   -0.34644E-02   -0.39298E-02   816   0.361E-01    0.131E-01
DAV:   3    -0.872622379524E+03    0.22511E-03   -0.71106E-04   824   0.618E-02    0.825E-02
DAV:   4    -0.872622260900E+03    0.11862E-03   -0.83001E-04   808   0.784E-02    0.282E-02
DAV:   5    -0.872622267548E+03   -0.66476E-05   -0.20408E-04   808   0.307E-02    0.295E-02
DAV:   6    -0.872622263060E+03    0.44883E-05   -0.34731E-05   808   0.124E-02    0.182E-02
DAV:   7    -0.872622260437E+03    0.26222E-05   -0.11033E-05   792   0.815E-03    0.749E-03
DAV:   8    -0.872622260470E+03   -0.32793E-07   -0.39064E-06   688   0.572E-03
  50 F= -.87262226E+03 E0= -.87262226E+03  d E =-.226286E-02
       N       E                     dE             d eps       ncg     rms          rms(c)
DAV:   1    -0.872622101770E+03    0.15867E-03   -0.19015E-01   704   0.873E-01    0.928E-02
DAV:   2    -0.872622465071E+03   -0.36330E-03   -0.41117E-03   816   0.117E-01    0.424E-02
DAV:   3    -0.872622440975E+03    0.24096E-04   -0.73122E-05   832   0.200E-02    0.266E-02
DAV:   4    -0.872622427874E+03    0.13101E-04   -0.86413E-05   808   0.257E-02    0.899E-03
DAV:   5    -0.872622428677E+03   -0.80329E-06   -0.22884E-05   800   0.103E-02    0.962E-03
DAV:   6    -0.872622428204E+03    0.47254E-06   -0.30519E-06   592   0.380E-03
  51 F= -.87262243E+03 E0= -.87262243E+03  d E =-.243060E-02
       N       E                     dE             d eps       ncg     rms          rms(c)
DAV:   1    -0.872621726275E+03    0.70240E-03   -0.18514E+00   704   0.272E+00    0.256E-01
DAV:   2    -0.872625161088E+03   -0.34348E-02   -0.38621E-02   792   0.357E-01    0.130E-01
DAV:   3    -0.872624967022E+03    0.19407E-03   -0.67991E-04   832   0.575E-02    0.821E-02
DAV:   4    -0.872624844792E+03    0.12223E-03   -0.71654E-04   808   0.751E-02    0.265E-02
DAV:   5    -0.872624853002E+03   -0.82106E-05   -0.19969E-04   824   0.298E-02    0.275E-02
DAV:   6    -0.872624847626E+03    0.53763E-05   -0.32894E-05   808   0.122E-02    0.163E-02
DAV:   7    -0.872624844286E+03    0.33398E-05   -0.92401E-06   800   0.784E-03    0.645E-03
DAV:   8    -0.872624843675E+03    0.61149E-06   -0.45242E-06   712   0.722E-03
  52 F= -.87262484E+03 E0= -.87262484E+03  d E =-.241547E-02
       N       E                     dE             d eps       ncg     rms          rms(c)
DAV:   1    -0.872623655163E+03    0.11891E-02   -0.10890E+00   704   0.208E+00    0.196E-01
DAV:   2    -0.872625669012E+03   -0.20138E-02   -0.22642E-02   792   0.273E-01    0.991E-02
DAV:   3    -0.872625552384E+03    0.11663E-03   -0.39675E-04   832   0.439E-02    0.628E-02
DAV:   4    -0.872625476499E+03    0.75885E-04   -0.41196E-04   816   0.574E-02    0.199E-02
DAV:   5    -0.872625481539E+03   -0.50397E-05   -0.12001E-04   808   0.232E-02    0.208E-02
DAV:   6    -0.872625478488E+03    0.30511E-05   -0.18540E-05   816   0.914E-03    0.127E-02
DAV:   7    -0.872625476548E+03    0.19398E-05   -0.51773E-06   752   0.624E-03    0.512E-03
DAV:   8    -0.872625476326E+03    0.22220E-06   -0.29245E-06   592   0.639E-03
  53 F= -.87262548E+03 E0= -.87262548E+03  d E =-.304812E-02
       N       E                     dE             d eps       ncg     rms          rms(c)
DAV:   1    -0.872624674595E+03    0.80195E-03   -0.16091E+00   704   0.253E+00    0.254E-01
DAV:   2    -0.872627664090E+03   -0.29895E-02   -0.33930E-02   816   0.335E-01    0.124E-01
DAV:   3    -0.872627480143E+03    0.18395E-03   -0.61974E-04   816   0.551E-02    0.781E-02
DAV:   4    -0.872627371819E+03    0.10832E-03   -0.62647E-04   808   0.671E-02    0.249E-02
DAV:   5    -0.872627377217E+03   -0.53979E-05   -0.16029E-04   816   0.276E-02    0.250E-02
DAV:   6    -0.872627373348E+03    0.38685E-05   -0.31243E-05   808   0.121E-02    0.150E-02
DAV:   7    -0.872627371389E+03    0.19594E-05   -0.67784E-06   784   0.703E-03    0.597E-03
DAV:   8    -0.872627371295E+03    0.93452E-07   -0.28543E-06   592   0.609E-03
  54 F= -.87262737E+03 E0= -.87262737E+03  d E =-.189497E-02
       N       E                     dE             d eps       ncg     rms          rms(c)
DAV:   1    -0.872627202796E+03    0.16859E-03   -0.18936E-01   704   0.869E-01    0.867E-02
DAV:   2    -0.872627555126E+03   -0.35233E-03   -0.39992E-03   816   0.115E-01    0.426E-02
DAV:   3    -0.872627532914E+03    0.22212E-04   -0.72048E-05   816   0.188E-02    0.269E-02
DAV:   4    -0.872627519542E+03    0.13372E-04   -0.74494E-05   808   0.234E-02    0.859E-03
DAV:   5    -0.872627520224E+03   -0.68207E-06   -0.20141E-05   808   0.985E-03    0.873E-03
DAV:   6    -0.872627519769E+03    0.45456E-06   -0.34970E-06   632   0.415E-03
  55 F= -.87262752E+03 E0= -.87262752E+03  d E =-.204344E-02
       N       E                     dE             d eps       ncg     rms          rms(c)
DAV:   1    -0.872627268700E+03    0.25152E-03   -0.11321E+00   704   0.212E+00    0.202E-01
DAV:   2    -0.872629361674E+03   -0.20930E-02   -0.23512E-02   784   0.278E-01    0.106E-01
DAV:   3    -0.872629242536E+03    0.11914E-03   -0.41235E-04   832   0.452E-02    0.675E-02
DAV:   4    -0.872629170784E+03    0.71752E-04   -0.49779E-04   800   0.611E-02    0.232E-02
DAV:   5    -0.872629173787E+03   -0.30029E-05   -0.12518E-04   824   0.242E-02    0.234E-02
DAV:   6    -0.872629169808E+03    0.39789E-05   -0.24576E-05   808   0.107E-02    0.135E-02
DAV:   7    -0.872629167560E+03    0.22480E-05   -0.81399E-06   792   0.757E-03    0.486E-03
DAV:   8    -0.872629167502E+03    0.57866E-07   -0.31972E-06   624   0.569E-03
  56 F= -.87262917E+03 E0= -.87262917E+03  d E =-.164773E-02
       N       E                     dE             d eps       ncg     rms          rms(c)
DAV:   1    -0.872628136848E+03    0.10307E-02   -0.95842E-01   704   0.195E+00    0.185E-01
DAV:   2    -0.872629903377E+03   -0.17665E-02   -0.19826E-02   784   0.255E-01    0.969E-02
DAV:   3    -0.872629799873E+03    0.10350E-03   -0.34468E-04   832   0.414E-02    0.620E-02
DAV:   4    -0.872629735769E+03    0.64103E-04   -0.41820E-04   808   0.565E-02    0.211E-02
DAV:   5    -0.872629738582E+03   -0.28130E-05   -0.10999E-04   816   0.227E-02    0.215E-02
DAV:   6    -0.872629735290E+03    0.32922E-05   -0.19443E-05   808   0.946E-03    0.129E-02
DAV:   7    -0.872629733142E+03    0.21478E-05   -0.71958E-06   776   0.735E-03    0.459E-03
DAV:   8    -0.872629733070E+03    0.72680E-07   -0.29085E-06   576   0.582E-03
  57 F= -.87262973E+03 E0= -.87262973E+03  d E =-.221330E-02
       N       E                     dE             d eps       ncg     rms          rms(c)
DAV:   1    -0.872628818633E+03    0.91451E-03   -0.15335E+00   704   0.246E+00    0.261E-01
DAV:   2    -0.872631683431E+03   -0.28648E-02   -0.32306E-02   808   0.326E-01    0.124E-01
DAV:   3    -0.872631497669E+03    0.18576E-03   -0.57983E-04   816   0.541E-02    0.777E-02
DAV:   4    -0.872631404377E+03    0.93292E-04   -0.63022E-04   808   0.670E-02    0.242E-02
DAV:   5    -0.872631409869E+03   -0.54915E-05   -0.15252E-04   808   0.265E-02    0.247E-02
DAV:   6    -0.872631406731E+03    0.31374E-05   -0.28468E-05   808   0.113E-02    0.145E-02
DAV:   7    -0.872631405281E+03    0.14501E-05   -0.65284E-06   776   0.610E-03    0.610E-03
DAV:   8    -0.872631405388E+03   -0.10689E-06   -0.21022E-06   520   0.436E-03
  58 F= -.87263141E+03 E0= -.87263141E+03  d E =-.167232E-02
       N       E                     dE             d eps       ncg     rms          rms(c)
DAV:   1    -0.872631194478E+03    0.21080E-03   -0.21167E-01   704   0.915E-01    0.968E-02
DAV:   2    -0.872631590228E+03   -0.39575E-03   -0.44602E-03   816   0.121E-01    0.462E-02
DAV:   3    -0.872631564285E+03    0.25943E-04   -0.79161E-05   816   0.201E-02    0.289E-02
DAV:   4    -0.872631551170E+03    0.13115E-04   -0.87012E-05   808   0.251E-02    0.898E-03
DAV:   5    -0.872631552000E+03   -0.83039E-06   -0.22084E-05   808   0.101E-02    0.926E-03
DAV:   6    -0.872631551564E+03    0.43648E-06   -0.35847E-06   656   0.409E-03
  59 F= -.87263155E+03 E0= -.87263155E+03  d E =-.181849E-02
       N       E                     dE             d eps       ncg     rms          rms(c)
DAV:   1    -0.872631326313E+03    0.22569E-03   -0.10203E+00   704   0.201E+00    0.186E-01
DAV:   2    -0.872633206232E+03   -0.18799E-02   -0.20979E-02   792   0.262E-01    0.100E-01
DAV:   3    -0.872633105778E+03    0.10045E-03   -0.36451E-04   832   0.413E-02    0.639E-02
DAV:   4    -0.872633044164E+03    0.61615E-04   -0.41934E-04   800   0.558E-02    0.211E-02
DAV:   5    -0.872633046864E+03   -0.27009E-05   -0.10578E-04   816   0.222E-02    0.210E-02
DAV:   6    -0.872633043443E+03    0.34209E-05   -0.21333E-05   808   0.999E-03    0.117E-02
DAV:   7    -0.872633041479E+03    0.19646E-05   -0.61167E-06   792   0.657E-03    0.428E-03
DAV:   8    -0.872633041232E+03    0.24695E-06   -0.26204E-06   584   0.561E-03
  60 F= -.87263304E+03 E0= -.87263304E+03  d E =-.148967E-02
       N       E                     dE             d eps       ncg     rms          rms(c)
DAV:   1    -0.872631565980E+03    0.14755E-02   -0.13263E+00   704   0.229E+00    0.211E-01
DAV:   2    -0.872634000406E+03   -0.24344E-02   -0.27156E-02   792   0.298E-01    0.114E-01
DAV:   3    -0.872633866887E+03    0.13352E-03   -0.46954E-04   832   0.469E-02    0.728E-02
DAV:   4    -0.872633782286E+03    0.84601E-04   -0.53803E-04   816   0.635E-02    0.237E-02
DAV:   5    -0.872633785860E+03   -0.35736E-05   -0.14011E-04   816   0.255E-02    0.237E-02
DAV:   6    -0.872633781534E+03    0.43257E-05   -0.26429E-05   808   0.111E-02    0.136E-02
DAV:   7    -0.872633778761E+03    0.27727E-05   -0.77042E-06   784   0.772E-03    0.498E-03
DAV:   8    -0.872633778427E+03    0.33493E-06   -0.40559E-06   688   0.702E-03
  61 F= -.87263378E+03 E0= -.87263378E+03  d E =-.222686E-02
       N       E                     dE             d eps       ncg     rms          rms(c)
DAV:   1    -0.872633904234E+03   -0.12547E-03   -0.87719E-01   704   0.186E+00    0.189E-01
DAV:   2    -0.872635547413E+03   -0.16432E-02   -0.18404E-02   808   0.245E-01    0.955E-02
DAV:   3    -0.872635449612E+03    0.97801E-04   -0.32191E-04   816   0.397E-02    0.596E-02
DAV:   4    -0.872635397470E+03    0.52143E-04   -0.34917E-04   816   0.503E-02    0.183E-02
DAV:   5    -0.872635400282E+03   -0.28124E-05   -0.85749E-05   808   0.198E-02    0.185E-02
DAV:   6    -0.872635398212E+03    0.20706E-05   -0.16114E-05   808   0.855E-03    0.107E-02
DAV:   7    -0.872635397239E+03    0.97274E-06   -0.36519E-06   648   0.477E-03
  62 F= -.87263540E+03 E0= -.87263540E+03  d E =-.161881E-02
