 vasp.5.4.1 05Feb16 (build Feb 08 2018 09:21:51) complex                        
  
 executed on             LinuxIFC date 2019.10.17  10:42:42
 running on   48 total cores
 distrk:  each k-point on   48 cores,    1 groups
 distr:  one band on NCORES_PER_BAND=   6 cores,    8 groups


--------------------------------------------------------------------------------------------------------


 INCAR:
 POTCAR:    PAW_PBE Al 04Jan2001                  
 POTCAR:    PAW_PBE C 08Apr2002                   
 POTCAR:    PAW_PBE H 15Jun2001                   
 POTCAR:    PAW_PBE O 08Apr2002                   
 POTCAR:    PAW_PBE Si 05Jan2001                  
 POTCAR:    PAW_PBE Al 04Jan2001                  
   VRHFIN =Al: s2p1                                                             
   LEXCH  = PE                                                                  
   EATOM  =    53.5387 eV,    3.9350 Ry                                         
                                                                                
   TITEL  = PAW_PBE Al 04Jan2001                                                
   LULTRA =        F    use ultrasoft PP ?                                      
   IUNSCR =        1    unscreen: 0-lin 1-nonlin 2-no                           
   RPACOR =    1.500    partial core radius                                     
   POMASS =   26.981; ZVAL   =    3.000    mass and valenz                      
   RCORE  =    1.900    outmost cutoff radius                                   
   RWIGS  =    2.650; RWIGS  =    1.402    wigner-seitz radius (au A)           
   ENMAX  =  240.300; ENMIN  =  180.225 eV                                      
   ICORE  =        2    local potential                                         
   LCOR   =        T    correct aug charges                                     
   LPAW   =        T    paw PP                                                  
   EAUG   =  291.052                                                            
   DEXC   =    0.000                                                            
   RMAX   =    1.939    core radius for proj-oper                               
   RAUG   =    1.300    factor for augmentation sphere                          
   RDEP   =    1.966    radius for radial grids                                 
   RDEPT  =    1.856    core radius for aug-charge                              
                                                                                
   Atomic configuration                                                         
    6 entries                                                                   
     n  l   j            E        occ.                                          
     1  0  0.50     -1511.1048   2.0000                                         
     2  0  0.50      -108.1629   2.0000                                         
     2  1  1.50       -69.6402   6.0000                                         
     3  0  0.50        -7.7528   2.0000                                         
     3  1  1.50        -2.7121   1.0000                                         
     3  2  2.50        -2.7212   0.0000                                         
   Description                                                                  
     l       E           TYP  RCUT    TYP  RCUT                                 
     0     -7.7528455     23  1.900                                             
     0     -3.3096929     23  1.900                                             
     1     -2.7120682     23  1.900                                             
     1     13.6058260     23  1.900                                             
     2     -2.7211652      7  1.900                                             
  local pseudopotential read in
  partial core-charges read in
  partial kinetic energy density read in
  atomic valenz-charges read in
  non local Contribution for L=           0  read in
    real space projection operators read in
  non local Contribution for L=           0  read in
    real space projection operators read in
  non local Contribution for L=           1  read in
    real space projection operators read in
  non local Contribution for L=           1  read in
    real space projection operators read in
    PAW grid and wavefunctions read in
 
   number of l-projection  operators is LMAX  =           4
   number of lm-projection operators is LMMAX =           8
 
 POTCAR:    PAW_PBE C 08Apr2002                   
   VRHFIN =C: s2p2                                                              
   LEXCH  = PE                                                                  
   EATOM  =   147.1560 eV,   10.8157 Ry                                         
                                                                                
   TITEL  = PAW_PBE C 08Apr2002                                                 
   LULTRA =        F    use ultrasoft PP ?                                      
   IUNSCR =        1    unscreen: 0-lin 1-nonlin 2-no                           
   RPACOR =    1.200    partial core radius                                     
   POMASS =   12.011; ZVAL   =    4.000    mass and valenz                      
   RCORE  =    1.500    outmost cutoff radius                                   
   RWIGS  =    1.630; RWIGS  =    0.863    wigner-seitz radius (au A)           
   ENMAX  =  400.000; ENMIN  =  300.000 eV                                      
   ICORE  =        2    local potential                                         
   LCOR   =        T    correct aug charges                                     
   LPAW   =        T    paw PP                                                  
   EAUG   =  644.873                                                            
   DEXC   =    0.000                                                            
   RMAX   =    1.529    core radius for proj-oper                               
   RAUG   =    1.300    factor for augmentation sphere                          
   RDEP   =    1.501    radius for radial grids                                 
   RDEPT  =    1.300    core radius for aug-charge                              
                                                                                
   Atomic configuration                                                         
    4 entries                                                                   
     n  l   j            E        occ.                                          
     1  0  0.50      -273.3789   2.0000                                         
     2  0  0.50       -13.7508   2.0000                                         
     2  1  0.50        -5.2854   2.0000                                         
     3  2  1.50        -5.4423   0.0000                                         
   Description                                                                  
     l       E           TYP  RCUT    TYP  RCUT                                 
     0    -13.7508458     23  1.200                                             
     0     -8.2022199     23  1.200                                             
     1     -5.2854383     23  1.500                                             
     1     34.0145650     23  1.500                                             
     2     -5.4423304      7  1.500                                             
  local pseudopotential read in
  partial core-charges read in
  partial kinetic energy density read in
  atomic valenz-charges read in
  non local Contribution for L=           0  read in
    real space projection operators read in
  non local Contribution for L=           0  read in
    real space projection operators read in
  non local Contribution for L=           1  read in
    real space projection operators read in
  non local Contribution for L=           1  read in
    real space projection operators read in
    PAW grid and wavefunctions read in
 
   number of l-projection  operators is LMAX  =           4
   number of lm-projection operators is LMMAX =           8
 
 POTCAR:    PAW_PBE H 15Jun2001                   
   VRHFIN =H: ultrasoft test                                                    
   LEXCH  = PE                                                                  
   EATOM  =    12.4884 eV,    0.9179 Ry                                         
                                                                                
   TITEL  = PAW_PBE H 15Jun2001                                                 
   LULTRA =        F    use ultrasoft PP ?                                      
   IUNSCR =        0    unscreen: 0-lin 1-nonlin 2-no                           
   RPACOR =    0.000    partial core radius                                     
   POMASS =    1.000; ZVAL   =    1.000    mass and valenz                      
   RCORE  =    1.100    outmost cutoff radius                                   
   RWIGS  =    0.700; RWIGS  =    0.370    wigner-seitz radius (au A)           
   ENMAX  =  250.000; ENMIN  =  200.000 eV                                      
   RCLOC  =    0.701    cutoff for local pot                                    
   LCOR   =        T    correct aug charges                                     
   LPAW   =        T    paw PP                                                  
   EAUG   =  400.000                                                            
   RMAX   =    1.123    core radius for proj-oper                               
   RAUG   =    1.200    factor for augmentation sphere                          
   RDEP   =    1.112    radius for radial grids                                 
   RDEPT  =    0.926    core radius for aug-charge                              
                                                                                
   Atomic configuration                                                         
    2 entries                                                                   
     n  l   j            E        occ.                                          
     1  0  0.50        -6.4927   1.0000                                         
     2  1  0.50        -3.4015   0.0000                                         
   Description                                                                  
     l       E           TYP  RCUT    TYP  RCUT                                 
     0     -6.4927494     23  1.100                                             
     0      6.8029130     23  1.100                                             
     1     -4.0817478     23  1.100                                             
  local pseudopotential read in
  atomic valenz-charges read in
  non local Contribution for L=           0  read in
    real space projection operators read in
  non local Contribution for L=           0  read in
    real space projection operators read in
  non local Contribution for L=           1  read in
    real space projection operators read in
    PAW grid and wavefunctions read in
 
   number of l-projection  operators is LMAX  =           3
   number of lm-projection operators is LMMAX =           5
 
 POTCAR:    PAW_PBE O 08Apr2002                   
   VRHFIN =O: s2p4                                                              
   LEXCH  = PE                                                                  
   EATOM  =   432.3788 eV,   31.7789 Ry                                         
                                                                                
   TITEL  = PAW_PBE O 08Apr2002                                                 
   LULTRA =        F    use ultrasoft PP ?                                      
   IUNSCR =        1    unscreen: 0-lin 1-nonlin 2-no                           
   RPACOR =    1.200    partial core radius                                     
   POMASS =   16.000; ZVAL   =    6.000    mass and valenz                      
   RCORE  =    1.520    outmost cutoff radius                                   
   RWIGS  =    1.550; RWIGS  =    0.820    wigner-seitz radius (au A)           
   ENMAX  =  400.000; ENMIN  =  300.000 eV                                      
   ICORE  =        2    local potential                                         
   LCOR   =        T    correct aug charges                                     
   LPAW   =        T    paw PP                                                  
   EAUG   =  605.392                                                            
   DEXC   =    0.000                                                            
   RMAX   =    1.553    core radius for proj-oper                               
   RAUG   =    1.300    factor for augmentation sphere                          
   RDEP   =    1.550    radius for radial grids                                 
   RDEPT  =    1.329    core radius for aug-charge                              
                                                                                
   Atomic configuration                                                         
    4 entries                                                                   
     n  l   j            E        occ.                                          
     1  0  0.50      -514.6923   2.0000                                         
     2  0  0.50       -23.9615   2.0000                                         
     2  1  0.50        -9.0305   4.0000                                         
     3  2  1.50        -9.5241   0.0000                                         
   Description                                                                  
     l       E           TYP  RCUT    TYP  RCUT                                 
     0    -23.9615318     23  1.200                                             
     0     -9.5240782     23  1.200                                             
     1     -9.0304911     23  1.520                                             
     1      8.1634956     23  1.520                                             
     2     -9.5240782      7  1.500                                             
  local pseudopotential read in
  partial core-charges read in
  partial kinetic energy density read in
  kinetic energy density of atom read in
  atomic valenz-charges read in
  non local Contribution for L=           0  read in
    real space projection operators read in
  non local Contribution for L=           0  read in
    real space projection operators read in
  non local Contribution for L=           1  read in
    real space projection operators read in
  non local Contribution for L=           1  read in
    real space projection operators read in
    PAW grid and wavefunctions read in
 
   number of l-projection  operators is LMAX  =           4
   number of lm-projection operators is LMMAX =           8
 
 POTCAR:    PAW_PBE Si 05Jan2001                  
   VRHFIN =Si: s2p2                                                             
   LEXCH  = PE                                                                  
   EATOM  =   103.0669 eV,    7.5752 Ry                                         
                                                                                
   TITEL  = PAW_PBE Si 05Jan2001                                                
   LULTRA =        F    use ultrasoft PP ?                                      
   IUNSCR =        1    unscreen: 0-lin 1-nonlin 2-no                           
   RPACOR =    1.500    partial core radius                                     
   POMASS =   28.085; ZVAL   =    4.000    mass and valenz                      
   RCORE  =    1.900    outmost cutoff radius                                   
   RWIGS  =    2.480; RWIGS  =    1.312    wigner-seitz radius (au A)           
   ENMAX  =  245.345; ENMIN  =  184.009 eV                                      
   ICORE  =        2    local potential                                         
   LCOR   =        T    correct aug charges                                     
   LPAW   =        T    paw PP                                                  
   EAUG   =  322.069                                                            
   DEXC   =    0.000                                                            
   RMAX   =    1.950    core radius for proj-oper                               
   RAUG   =    1.300    factor for augmentation sphere                          
   RDEP   =    1.993    radius for radial grids                                 
   RDEPT  =    1.837    core radius for aug-charge                              
                                                                                
   Atomic configuration                                                         
    6 entries                                                                   
     n  l   j            E        occ.                                          
     1  0  0.50     -1785.8828   2.0000                                         
     2  0  0.50      -139.4969   2.0000                                         
     2  1  1.50       -95.5546   6.0000                                         
     3  0  0.50       -10.8127   2.0000                                         
     3  1  0.50        -4.0811   2.0000                                         
     3  2  1.50        -4.0817   0.0000                                         
   Description                                                                  
     l       E           TYP  RCUT    TYP  RCUT                                 
     0    -10.8127223     23  1.900                                             
     0     -7.6451159     23  1.900                                             
     1     -4.0811372     23  1.900                                             
     1      2.4879257     23  1.900                                             
     2     -4.0817478      7  1.900                                             
  local pseudopotential read in
  partial core-charges read in
  partial kinetic energy density read in
  atomic valenz-charges read in
  non local Contribution for L=           0  read in
    real space projection operators read in
  non local Contribution for L=           0  read in
    real space projection operators read in
  non local Contribution for L=           1  read in
    real space projection operators read in
  non local Contribution for L=           1  read in
    real space projection operators read in
    PAW grid and wavefunctions read in
 
   number of l-projection  operators is LMAX  =           4
   number of lm-projection operators is LMMAX =           8
 
 Optimization of the real space projectors (new method)

 maximal supplied QI-value         = 19.84
 optimisation between [QCUT,QGAM] = [ 10.12, 20.44] = [ 28.68,116.96] Ry 
 Optimized for a Real-space Cutoff    1.23 Angstroem

   l    n(q)    QCUT    max X(q) W(low)/X(q) W(high)/X(q)  e(spline) 
   0      7    10.119   176.870    0.49E-04    0.18E-03    0.39E-07
   0      7    10.119   105.762    0.46E-04    0.18E-03    0.38E-07
   1      7    10.119    55.370    0.30E-03    0.37E-03    0.12E-06
   1      7    10.119    20.208    0.27E-03    0.35E-03    0.11E-06
 Optimization of the real space projectors (new method)

 maximal supplied QI-value         = 25.13
 optimisation between [QCUT,QGAM] = [ 10.05, 20.36] = [ 28.30,116.06] Ry 
 Optimized for a Real-space Cutoff    1.30 Angstroem

   l    n(q)    QCUT    max X(q) W(low)/X(q) W(high)/X(q)  e(spline) 
   0      8    10.053   115.676    0.49E-03    0.72E-03    0.18E-06
   0      8    10.053    87.132    0.49E-03    0.71E-03    0.18E-06
   1      7    10.053     4.429    0.32E-03    0.31E-03    0.18E-06
   1      7    10.053     2.733    0.23E-03    0.19E-03    0.20E-06
 Optimization of the real space projectors (new method)

 maximal supplied QI-value         = 34.20
 optimisation between [QCUT,QGAM] = [  9.92, 20.18] = [ 27.55,114.04] Ry 
 Optimized for a Real-space Cutoff    1.26 Angstroem

   l    n(q)    QCUT    max X(q) W(low)/X(q) W(high)/X(q)  e(spline) 
   0      8     9.919    19.460    0.50E-03    0.23E-03    0.29E-06
   0      8     9.919    12.209    0.48E-03    0.23E-03    0.28E-06
   1      7     9.919     4.655    0.17E-03    0.75E-03    0.30E-06
 Optimization of the real space projectors (new method)

 maximal supplied QI-value         = 24.76
 optimisation between [QCUT,QGAM] = [ 10.15, 20.30] = [ 28.85,115.39] Ry 
 Optimized for a Real-space Cutoff    1.38 Angstroem

   l    n(q)    QCUT    max X(q) W(low)/X(q) W(high)/X(q)  e(spline) 
   0      8    10.150    20.381    0.22E-03    0.32E-03    0.29E-06
   0      8    10.150    15.268    0.23E-03    0.35E-03    0.30E-06
   1      8    10.150     5.964    0.46E-03    0.53E-03    0.21E-06
   1      8    10.150     5.382    0.38E-03    0.45E-03    0.19E-06
 Optimization of the real space projectors (new method)

 maximal supplied QI-value         = 19.84
 optimisation between [QCUT,QGAM] = [ 10.12, 20.44] = [ 28.68,116.96] Ry 
 Optimized for a Real-space Cutoff    1.23 Angstroem

   l    n(q)    QCUT    max X(q) W(low)/X(q) W(high)/X(q)  e(spline) 
   0      7    10.119   159.560    0.56E-04    0.22E-03    0.45E-07
   0      7    10.119   115.863    0.56E-04    0.21E-03    0.45E-07
   1      7    10.119    88.339    0.34E-03    0.49E-03    0.11E-06
   1      7    10.119    48.592    0.33E-03    0.48E-03    0.11E-06
  PAW_PBE Al 04Jan2001                  :
 energy of atom  1       EATOM=  -53.5387
 kinetic energy error for atom=    0.0005 (will be added to EATOM!!)
  PAW_PBE C 08Apr2002                   :
 energy of atom  2       EATOM= -147.1560
 kinetic energy error for atom=    0.0288 (will be added to EATOM!!)
  PAW_PBE H 15Jun2001                   :
 energy of atom  3       EATOM=  -12.4884
 kinetic energy error for atom=    0.0098 (will be added to EATOM!!)
  PAW_PBE O 08Apr2002                   :
 energy of atom  4       EATOM= -432.3788
 kinetic energy error for atom=    0.1156 (will be added to EATOM!!)
  PAW_PBE Si 05Jan2001                  :
 energy of atom  5       EATOM= -103.0669
 kinetic energy error for atom=    0.0012 (will be added to EATOM!!)
 
 
 POSCAR: Al  C  H  O Si                          
  positions in cartesian coordinates
  No initial velocities read in
 exchange correlation table for  LEXCH =        8
   RHO(1)=    0.500       N(1)  =     2000
   RHO(2)=  100.500       N(2)  =     4000
 


--------------------------------------------------------------------------------------------------------


 ion  position               nearest neighbor table
   1  0.562  0.667  0.562-  43 1.62  72 1.62  44 1.63  67 1.63   2 2.39  98 3.10 103 3.13 110 3.13
                            95 3.14
   2  0.615  0.798  0.441-   4 1.08   5 1.08   3 1.08  43 1.50   1 2.39 110 2.55
   3  0.660  0.889  0.441-   2 1.08
   4  0.660  0.753  0.441-   2 1.08
   5  0.524  0.753  0.441-   2 1.08
   6  0.019  0.334  0.834-  88 1.62 104 1.62
   7  0.214  0.427  0.535-  82 1.62  95 1.62
   8  0.547  0.094  0.203- 106 1.62 111 1.62
   9  0.880  0.761  0.867- 105 1.62  79 1.62
  10  0.453  0.547  0.799-  83 1.62 103 1.62
  11  0.121  0.880  0.131-  84 1.62  86 1.62
  12  0.094  0.547  0.798-  94 1.62  88 1.62
  13  0.429  0.215  0.466- 112 1.62  99 1.62
  14  0.760  0.880  0.133-  97 1.62  81 1.62
  15  0.214  0.787  0.534-  92 1.62 100 1.62
  16  0.900  0.099  0.124-  81 1.63  90 1.63
  17  0.239  0.120  0.868- 107 1.62 101 1.62
  18  0.864  0.432  0.457-  91 1.63  93 1.63
  19  0.432  0.864  0.544- 110 1.63  92 1.63
  20  0.982  0.315  0.167-  90 1.62  80 1.62
  21  0.648  1.000  0.500-  89 1.62 110 1.62
  22  0.000  0.647  0.500- 100 1.62  93 1.62
  23  0.333  0.315  0.167- 108 1.62  87 1.62
  24  0.981  0.666  0.167-  96 1.62  84 1.62
  25  0.352  0.352  0.501-  95 1.62  99 1.62
  26  0.684  0.018  0.166- 106 1.62  81 1.62
  27  0.667  0.982  0.834-  78 1.62 109 1.62
  28  0.001  0.353  0.499-  82 1.62  91 1.62
  29  0.788  0.213  0.466-  91 1.62  89 1.62
  30  0.334  0.018  0.167-  86 1.62 111 1.62
  31  0.906  0.453  0.201-  80 1.62  96 1.62
  32  0.315  0.334  0.834-  83 1.62 107 1.62
  33  0.453  0.907  0.799-  85 1.62  78 1.62
  34  0.073  0.669  0.667-  94 1.63 100 1.63
  35  0.669  0.072  0.333-  89 1.63 106 1.63
  36  0.998  0.739  1.000-  79 1.63  84 1.63
  37  0.595  0.929  0.667- 110 1.63  78 1.63
  38  0.928  0.593  0.333-  93 1.63  96 1.63
  39  0.260  0.260  0.000- 107 1.63  87 1.63
  40  0.405  0.332  0.334-  99 1.63 108 1.63
  41  0.787  0.574  0.465-  93 1.62  98 1.62
  42  0.740  0.999  1.000- 109 1.63  81 1.63
  43  0.573  0.787  0.536-   2 1.50 110 1.62   1 1.62
  44  0.595  0.666  0.667-   1 1.63 103 1.63
  45  0.262  0.001  1.000- 101 1.63  86 1.63
  46  0.072  0.404  0.667-  88 1.63  82 1.63
  47  0.405  0.073  0.334- 112 1.63 111 1.63
  48  0.334  0.406  0.667-  95 1.63  83 1.63
  49  0.741  0.742  1.000- 105 1.63  97 1.63
  50  0.546  0.454  0.202- 108 1.62 102 1.62
  51  0.880  0.121  0.868- 109 1.62 104 1.62
  52  0.333  0.927  0.667-  85 1.63  92 1.63
  53  0.568  0.433  0.456-  98 1.63  99 1.63
  54  0.668  0.596  0.333-  98 1.63 102 1.63
  55  0.927  0.334  0.333-  91 1.63  80 1.63
  56  0.353  0.001  0.500-  92 1.62 112 1.62
  57  0.315  0.982  0.833- 101 1.62  85 1.62
  58  0.902  0.803  0.124-  97 1.63  84 1.63
  59  0.235  0.766  0.791-  85 1.63  94 1.63
  60  0.119  0.239  0.132-  87 1.62  90 1.62
  61  0.569  0.136  0.455-  89 1.63 112 1.63
  62  0.234  0.469  0.790-  88 1.63  83 1.63
  63  0.198  0.098  0.124-  87 1.63  86 1.63
  64  0.000  0.261  0.000- 104 1.63  90 1.63
  65  0.099  0.901  0.877-  79 1.63 101 1.63
  66  0.803  0.902  0.875- 109 1.63 105 1.63
  67  0.433  0.568  0.544-   1 1.63  95 1.63
  68  0.531  0.766  0.789-  78 1.63 103 1.63
  69  0.765  0.531  0.211-  96 1.63 102 1.63
  70  0.137  0.568  0.545- 100 1.63  82 1.63
  71  0.469  0.235  0.210- 111 1.63 108 1.63
  72  0.649  0.649  0.500-  98 1.62   1 1.62
  73  0.766  0.234  0.209- 106 1.63  80 1.63
  74  0.666  0.685  0.834- 103 1.62 105 1.62
  75  0.019  0.685  0.834-  94 1.62  79 1.62
  76  0.099  0.198  0.877- 104 1.63 107 1.63
  77  0.685  0.666  0.166- 102 1.62  97 1.62
  78  0.562  0.895  0.772-  27 1.62  33 1.62  37 1.63  68 1.63 109 3.10 110 3.12  85 3.13 103 3.14

  79  1.000  0.772  0.895-   9 1.62  75 1.62  36 1.63  65 1.63  94 3.10 105 3.12  84 3.13 101 3.14

  80  0.895  0.334  0.228-  31 1.62  20 1.62  55 1.63  73 1.63  90 3.10  96 3.12  91 3.13 106 3.13

  81  0.771  0.999  0.105-  14 1.62  26 1.62  42 1.63  16 1.63 106 3.10  97 3.12 109 3.14  90 3.14

  82  0.106  0.439  0.562-  28 1.62   7 1.62  46 1.63  70 1.63  91 3.11  88 3.12  95 3.13 100 3.14

  83  0.334  0.439  0.772-  10 1.62  32 1.62  48 1.63  62 1.63 107 3.10  95 3.13 103 3.13  88 3.14

  84  0.000  0.772  0.105-  11 1.62  24 1.62  36 1.63  58 1.63  96 3.11  97 3.13  86 3.13  79 3.13

  85  0.334  0.895  0.772-  33 1.62  57 1.62  52 1.63  59 1.63 101 3.10  78 3.13  94 3.13  92 3.13

  86  0.228  1.000  0.105-  11 1.62  30 1.62  45 1.63  63 1.63 111 3.10 101 3.13  84 3.13  87 3.13

  87  0.228  0.228  0.106-  60 1.62  23 1.62  39 1.63  63 1.63 108 3.10  90 3.13 107 3.13  86 3.13

  88  0.105  0.439  0.772-  12 1.62   6 1.62  46 1.63  62 1.63 104 3.10  82 3.12  94 3.13  83 3.14

  89  0.668  0.105  0.438-  21 1.62  29 1.62  35 1.63  61 1.63 110 3.11  91 3.12 106 3.13 112 3.14

  90  0.000  0.228  0.105-  60 1.62  20 1.62  64 1.63  16 1.63  80 3.10  87 3.13 104 3.13  81 3.14

  91  0.895  0.333  0.438-  28 1.62  29 1.62  55 1.63  18 1.63  82 3.11  89 3.12  93 3.13  80 3.13

  92  0.334  0.895  0.561-  56 1.62  15 1.62  52 1.63  19 1.63 112 3.11 100 3.12  85 3.13 110 3.13

  93  0.895  0.561  0.438-  22 1.62  41 1.62  38 1.63  18 1.63 100 3.11  91 3.13  98 3.13  96 3.13

  94  0.105  0.667  0.772-  12 1.62  75 1.62  34 1.63  59 1.63  79 3.10 100 3.13  85 3.13  88 3.13

  95  0.334  0.438  0.562-   7 1.62  25 1.62  48 1.63  67 1.63  99 3.10  83 3.13  82 3.13   1 3.14

  96  0.895  0.561  0.228-  31 1.62  24 1.62  38 1.63  69 1.63  84 3.11  80 3.12  93 3.13 102 3.14

  97  0.773  0.773  0.105-  14 1.62  77 1.62  49 1.63  58 1.63 102 3.11  81 3.12  84 3.13 105 3.14

  98  0.668  0.563  0.438-  72 1.62  41 1.62  54 1.63  53 1.63   1 3.10 102 3.12  93 3.13  99 3.14

  99  0.439  0.333  0.439-  13 1.62  25 1.62  40 1.63  53 1.63  95 3.10 112 3.12 108 3.13  98 3.14

 100  0.106  0.667  0.562-  22 1.62  15 1.62  34 1.63  70 1.63  93 3.11  92 3.12  94 3.13  82 3.14

 101  0.228  0.001  0.895-  17 1.62  57 1.62  45 1.63  65 1.63  85 3.10 107 3.13  86 3.13  79 3.14

 102  0.667  0.562  0.228-  50 1.62  77 1.62  54 1.63  69 1.63  97 3.11  98 3.12 108 3.13  96 3.14

 103  0.561  0.667  0.772-  74 1.62  10 1.62  44 1.63  68 1.63 105 3.10   1 3.13  83 3.13  78 3.14

 104  1.000  0.229  0.895-  51 1.62   6 1.62  64 1.63  76 1.63  88 3.10 109 3.13  90 3.13 107 3.14

 105  0.773  0.773  0.895-  74 1.62   9 1.62  49 1.63  66 1.63 103 3.10  79 3.12 109 3.13  97 3.14

 106  0.667  0.105  0.228-   8 1.62  26 1.62  35 1.63  73 1.63  81 3.10  89 3.13  80 3.13 111 3.14

 107  0.228  0.228  0.895-  17 1.62  32 1.62  39 1.63  76 1.63  83 3.10 101 3.13  87 3.13 104 3.14

 108  0.438  0.333  0.229-  50 1.62  23 1.62  40 1.63  71 1.63  87 3.10  99 3.13 111 3.13 102 3.13

 109  0.772  0.000  0.895-  51 1.62  27 1.62  42 1.63  66 1.63  78 3.10 104 3.13 105 3.13  81 3.14

 110  0.562  0.895  0.562-  43 1.62  21 1.62  37 1.63  19 1.63   2 2.55  89 3.11  78 3.12   1 3.13
                            92 3.13
 111  0.439  0.105  0.229-   8 1.62  30 1.62  47 1.63  71 1.63  86 3.10 112 3.13 108 3.13 106 3.14

 112  0.440  0.106  0.438-  56 1.62  13 1.62  47 1.63  61 1.63  92 3.11  99 3.12 111 3.13  89 3.14

 
  LATTYP: Found a triclinic cell.
 ALAT       =    13.7322043351
 B/A-ratio  =     0.9994204431
 C/A-ratio  =     1.0843400086
 COS(alpha) =     0.0000550692
 COS(beta)  =     0.0002592822
 COS(gamma) =     0.4999019565
  
  Lattice vectors:
  
 A1 = (   6.8687391430, -11.8909148166,  -0.0018197328)
 A2 = (  -6.8608326708, -11.8862902565,  -0.0004082906)
 A3 = (   0.0015106504,  -0.0013072721, -14.8903784329)


Analysis of symmetry for initial positions (statically):
=====================================================================
 Subroutine PRICEL returns:
 Original cell was already a primitive cell.
 

 Routine SETGRP: Setting up the symmetry group for a 
 triclinic supercell.


 Subroutine GETGRP returns: Found  1 space group operations
 (whereof  1 operations were pure point group operations)
 out of a pool of  2 trial point group operations.


The static configuration has the point symmetry C_1 .


Analysis of symmetry for dynamics (positions and initial velocities):
=====================================================================
 Subroutine PRICEL returns:
 Original cell was already a primitive cell.
 

 Routine SETGRP: Setting up the symmetry group for a 
 triclinic supercell.


 Subroutine GETGRP returns: Found  1 space group operations
 (whereof  1 operations were pure point group operations)
 out of a pool of  2 trial point group operations.


The dynamic configuration has the point symmetry C_1 .


 Subroutine INISYM returns: Found  1 space group operations
 (whereof  1 operations are pure point group operations),
 and found     1 'primitive' translations

 
 
 KPOINTS: KPOINTS created by Atomic Simulation Env

Automatic generation of k-mesh.
Space group operators:
 irot       det(A)        alpha          n_x          n_y          n_z        tau_x        tau_y        tau_z
    1     1.000000     0.000001     1.000000     0.000000     0.000000     0.000000     0.000000     0.000000
 
 Subroutine IBZKPT returns following result:
 ===========================================
 
 Found      1 irreducible k-points:
 
 Following reciprocal coordinates:
            Coordinates               Weight
  0.000000  0.000000  0.000000      1.000000
 
 Following cartesian coordinates:
            Coordinates               Weight
  0.000000  0.000000  0.000000      1.000000
 


--------------------------------------------------------------------------------------------------------




 Dimension of arrays:
   k-points           NKPTS =      1   k-points in BZ     NKDIM =      1   number of bands    NBANDS=    352
   number of dos      NEDOS =    301   number of ions     NIONS =    112
   non local maximal  LDIM  =      4   non local SUM 2l+1 LMDIM =      8
   total plane-waves  NPLWV = 392000
   max r-space proj   IRMAX =   1827   max aug-charges    IRDMAX=   6476
   dimension x,y,z NGX =    70 NGY =   70 NGZ =   80
   dimension x,y,z NGXF=   140 NGYF=  140 NGZF=  160
   support grid    NGXF=   140 NGYF=  140 NGZF=  160
   ions per type =               1   1   3  72  35
 NGX,Y,Z   is equivalent  to a cutoff of   8.48,  8.47,  8.93 a.u.
 NGXF,Y,Z  is equivalent  to a cutoff of  16.95, 16.95, 17.86 a.u.


 I would recommend the setting:
   dimension x,y,z NGX =    67 NGY =   67 NGZ =   73
 SYSTEM =  unknown system                          
 POSCAR =  Al  C  H  O Si                          

 Startparameter for this run:
   NWRITE =      2    write-flag & timer
   PREC   = normal    normal or accurate (medium, high low for compatibility)
   ISTART =      0    job   : 0-new  1-cont  2-samecut
   ICHARG =      2    charge: 1-file 2-atom 10-const
   ISPIN  =      1    spin polarized calculation?
   LNONCOLLINEAR =      F non collinear calculations
   LSORBIT =      F    spin-orbit coupling
   INIWAV =      1    electr: 0-lowe 1-rand  2-diag
   LASPH  =      F    aspherical Exc in radial PAW
   METAGGA=      F    non-selfconsistent MetaGGA calc.

 Electronic Relaxation 1
   ENCUT  =  400.0 eV  29.40 Ry    5.42 a.u.  22.39 22.39 24.28*2*pi/ulx,y,z
   ENINI  =  400.0     initial cutoff
   ENAUG  =  644.9 eV  augmentation charge cutoff
   NELM   =     60;   NELMIN=  2; NELMDL= -5     # of ELM steps 
   EDIFF  = 0.1E-05   stopping-criterion for ELM
   LREAL  =      T    real-space projection
   NLSPLINE    = F    spline interpolate recip. space projectors
   LCOMPAT=      F    compatible to vasp.4.4
   GGA_COMPAT  = T    GGA compatible to vasp.4.4-vasp.4.6
   LMAXPAW     = -100 max onsite density
   LMAXMIX     =    2 max onsite mixed and CHGCAR
   VOSKOWN=      0    Vosko Wilk Nusair interpolation
   ROPT   =   -0.00050  -0.00050  -0.00050  -0.00050
   ROPT   =   -0.00050
 Ionic relaxation
   EDIFFG = -.5E-01   stopping-criterion for IOM
   NSW    =    500    number of steps for IOM
   NBLOCK =      1;   KBLOCK =    500    inner block; outer block 
   IBRION =      2    ionic relax: 0-MD 1-quasi-New 2-CG
   NFREE  =      1    steps in history (QN), initial steepest desc. (CG)
   ISIF   =      2    stress and relaxation
   IWAVPR =     11    prediction:  0-non 1-charg 2-wave 3-comb
   ISYM   =      2    0-nonsym 1-usesym 2-fastsym
   LCORR  =      T    Harris-Foulkes like correction to forces

   POTIM  = 0.5000    time-step for ionic-motion
   TEIN   =    0.0    initial temperature
   TEBEG  =    0.0;   TEEND  =   0.0 temperature during run
   SMASS  =  -3.00    Nose mass-parameter (am)
   estimated Nose-frequenzy (Omega)   =  0.10E-29 period in steps =****** mass=  -0.431E-26a.u.
   SCALEE = 1.0000    scale energy and forces
   NPACO  =    256;   APACO  = 16.0  distance and # of slots for P.C.
   PSTRESS=    0.0 pullay stress

  Mass of Ions in am
   POMASS =  26.98 12.01  1.00 16.00 28.09
  Ionic Valenz
   ZVAL   =   3.00  4.00  1.00  6.00  4.00
  Atomic Wigner-Seitz radii
   RWIGS  =  -1.00 -1.00 -1.00 -1.00 -1.00
  virtual crystal weights 
   VCA    =   1.00  1.00  1.00  1.00  1.00
   NELECT =     582.0000    total number of electrons
   NUPDOWN=      -1.0000    fix difference up-down

 DOS related values:
   EMIN   =  10.00;   EMAX   =-10.00  energy-range for DOS
   EFERMI =   0.00
   ISMEAR =     0;   SIGMA  =   0.10  broadening in eV -4-tet -1-fermi 0-gaus

 Electronic relaxation 2 (details)
   IALGO  =     38    algorithm
   LDIAG  =      T    sub-space diagonalisation (order eigenvalues)
   LSUBROT=      F    optimize rotation matrix (better conditioning)
   TURBO    =      0    0=normal 1=particle mesh
   IRESTART =      0    0=no restart 2=restart with 2 vectors
   NREBOOT  =      0    no. of reboots
   NMIN     =      0    reboot dimension
   EREF     =   0.00    reference energy to select bands
   IMIX   =      4    mixing-type and parameters
     AMIX     =   0.40;   BMIX     =  1.00
     AMIX_MAG =   1.60;   BMIX_MAG =  1.00
     AMIN     =   0.10
     WC   =   100.;   INIMIX=   1;  MIXPRE=   1;  MAXMIX= -45

 Intra band minimization:
   WEIMIN = 0.0010     energy-eigenvalue tresh-hold
   EBREAK =  0.71E-09  absolut break condition
   DEPER  =   0.30     relativ break condition  

   TIME   =   0.40     timestep for ELM

  volume/ion in A,a.u.               =      21.70       146.44
  Fermi-wavevector in a.u.,A,eV,Ry     =   1.016603  1.921101 14.061368  1.033481
  Thomas-Fermi vector in A             =   2.149956
 
 Write flags
   LWAVE  =      F    write WAVECAR
   LCHARG =      F    write CHGCAR
   LVTOT  =      F    write LOCPOT, total local potential
   LVHAR  =      F    write LOCPOT, Hartree potential only
   LELF   =      F    write electronic localiz. function (ELF)
   LORBIT =      0    0 simple, 1 ext, 2 COOP (PROOUT)


 Dipole corrections
   LMONO  =      F    monopole corrections only (constant potential shift)
   LDIPOL =      F    correct potential (dipole corrections)
   IDIPOL =      0    1-x, 2-y, 3-z, 4-all directions 
   EPSILON=  1.0000000 bulk dielectric constant

 Exchange correlation treatment:
   GGA     =    --    GGA type
   LEXCH   =     8    internal setting for exchange type
   VOSKOWN=      0    Vosko Wilk Nusair interpolation
   LHFCALC =     F    Hartree Fock is set to
   LHFONE  =     F    Hartree Fock one center treatment
   AEXX    =    0.0000 exact exchange contribution

 Linear response parameters
   LEPSILON=     F    determine dielectric tensor
   LRPA    =     F    only Hartree local field effects (RPA)
   LNABLA  =     F    use nabla operator in PAW spheres
   LVEL    =     F    velocity operator in full k-point grid
   LINTERFAST=   F  fast interpolation
   KINTER  =     0    interpolate to denser k-point grid
   CSHIFT  =0.1000    complex shift for real part using Kramers Kronig
   OMEGAMAX=  -1.0    maximum frequency
   DEG_THRESHOLD= 0.2000000E-02 threshold for treating states as degnerate
   RTIME   =    0.100 relaxation time in fs

 Orbital magnetization related:
   ORBITALMAG=     F  switch on orbital magnetization
   LCHIMAG   =     F  perturbation theory with respect to B field
   DQ        =  0.001000  dq finite difference perturbation B field



--------------------------------------------------------------------------------------------------------


 conjugate gradient relaxation of ions
 charge density and potential will be updated during run
 non-spin polarized calculation
 Variant of blocked Davidson
 Davidson routine will perform the subspace rotation
 perform sub-space diagonalisation
    after iterative eigenvector-optimisation
 modified Broyden-mixing scheme, WC =      100.0
 initial mixing is a Kerker type mixing with AMIX =  0.4000 and BMIX =      1.0000
 Hartree-type preconditioning will be used
 using additional bands           61
 real space projection scheme for non local part
 use partial core corrections
 calculate Harris-corrections to forces 
   (improved forces if not selfconsistent)
 use gradient corrections 
 use of overlap-Matrix (Vanderbilt PP)
 Gauss-broadening in eV      SIGMA  =   0.10


--------------------------------------------------------------------------------------------------------


  energy-cutoff  :      400.00
  volume of cell :     2430.49
      direct lattice vectors                 reciprocal lattice vectors
    13.729571814 -0.004624560 -0.001411442     0.072849658  0.042081312  0.000003696
    -6.868739143 11.890914817  0.001819733     0.000028332  0.084114186 -0.000007382
    -0.001510650  0.001307272 14.890378433     0.000006902 -0.000006291  0.067157462

  length of vectors
    13.729572665 13.732204335 14.890378567     0.084130313  0.084114191  0.067157462


 
 k-points in units of 2pi/SCALE and weight: KPOINTS created by Atomic Simulation Env
   0.00000000  0.00000000  0.00000000       1.000
 
 k-points in reciprocal lattice and weights: KPOINTS created by Atomic Simulation Env
   0.00000000  0.00000000  0.00000000       1.000
 
 position of ions in fractional coordinates (direct lattice) 
   0.56226675  0.66695774  0.56210364
   0.61453287  0.79811990  0.44065146
   0.65991378  0.88882947  0.44064467
   0.65987890  0.75279157  0.44066129
   0.52380594  0.75273865  0.44064840
   0.01866908  0.33415778  0.83400028
   0.21409633  0.42707628  0.53524471
   0.54684068  0.09367858  0.20255533
   0.88033373  0.76060205  0.86690236
   0.45307532  0.54735605  0.79899071
   0.12054702  0.87953215  0.13137146
   0.09356834  0.54704988  0.79753904
   0.42908437  0.21450775  0.46642178
   0.76014491  0.88009731  0.13310068
   0.21378515  0.78703006  0.53379068
   0.90028721  0.09915112  0.12387986
   0.23937203  0.11999702  0.86781467
   0.86357454  0.43151607  0.45676915
   0.43242939  0.86426723  0.54370028
   0.98229452  0.31530457  0.16694177
   0.64817130  0.99953414  0.49955176
   0.00043896  0.64720847  0.49975529
   0.33298125  0.31452668  0.16704582
   0.98098642  0.66644197  0.16658376
   0.35239198  0.35174152  0.50050091
   0.68385168  0.01788778  0.16566335
   0.66669377  0.98186541  0.83352303
   0.00116992  0.35335410  0.49925248
   0.78762049  0.21296121  0.46562061
   0.33373752  0.01849548  0.16668310
   0.90604538  0.45293233  0.20052744
   0.31495955  0.33394208  0.83414386
   0.45343721  0.90696615  0.79859222
   0.07328832  0.66873069  0.66657635
   0.66878397  0.07248771  0.33291341
   0.99839898  0.73872197  0.99995682
   0.59484588  0.92882677  0.66664679
   0.92775304  0.59328347  0.33317011
   0.26044392  0.26022676  0.00041043
   0.40496547  0.33173231  0.33375974
   0.78717796  0.57370545  0.46504080
   0.73962094  0.99881333  0.99981828
   0.57346146  0.78656886  0.53553586
   0.59502641  0.66649762  0.66714202
   0.26173374  0.00093142  0.99988745
   0.07171686  0.40445488  0.66663892
   0.40502615  0.07341303  0.33357486
   0.33388493  0.40556150  0.66715660
   0.74130148  0.74157771  0.99990420
   0.54626077  0.45356368  0.20249386
   0.88005958  0.12063688  0.86801315
   0.33290645  0.92704622  0.66660571
   0.56813333  0.43345568  0.45573462
   0.66787315  0.59620520  0.33318521
   0.92707692  0.33365692  0.33309150
   0.35337550  0.00075342  0.50030064
   0.31507762  0.98219159  0.83302738
   0.90175571  0.80301538  0.12424376
   0.23451294  0.76604255  0.79065746
   0.11938162  0.23874371  0.13244245
   0.56886513  0.13557705  0.45505081
   0.23426633  0.46883248  0.78952332
   0.19789636  0.09842721  0.12373094
   0.00001922  0.26079870  0.00040007
   0.09929620  0.90094046  0.87711490
   0.80289743  0.90184265  0.87522089
   0.43312280  0.56754296  0.54387454
   0.53149813  0.76617893  0.78927568
   0.76513887  0.53069600  0.21050735
   0.13681379  0.56845723  0.54503361
   0.46898042  0.23467224  0.20963910
   0.64913284  0.64895484  0.50026552
   0.76597739  0.23394914  0.20912494
   0.66631742  0.68549264  0.83419044
   0.01850874  0.68504333  0.83354036
   0.09893653  0.19841567  0.87681325
   0.68535530  0.66617265  0.16567902
   0.56160226  0.89548670  0.77161425
   0.99963954  0.77178059  0.89479173
   0.89488496  0.33352588  0.22786143
   0.77144754  0.99942864  0.10518678
   0.10592703  0.43874517  0.56189606
   0.33357859  0.43886748  0.77206256
   0.00004570  0.77197853  0.10511512
   0.33358113  0.89516793  0.77182313
   0.22843925  0.99974974  0.10499738
   0.22769218  0.22754836  0.10550695
   0.10497779  0.43863490  0.77151563
   0.66790209  0.10513258  0.43790817
   0.00006699  0.22803651  0.10547304
   0.89486199  0.33327201  0.43832718
   0.33354587  0.89477868  0.56149855
   0.89471565  0.56103274  0.43828992
   0.10537040  0.66709381  0.77164668
   0.33375432  0.43838063  0.56208668
   0.89452606  0.56088599  0.22808763
   0.77256536  0.77270690  0.10534218
   0.66765425  0.56266940  0.43814029
   0.43903444  0.33331600  0.43871159
   0.10601279  0.66735158  0.56164940
   0.22845574  0.00058940  0.89487405
   0.66657228  0.56165633  0.22836123
   0.56149853  0.66686609  0.77198996
   0.99987949  0.22851408  0.89520799
   0.77276445  0.77281234  0.89450369
   0.66676104  0.10493668  0.22800227
   0.22801816  0.22811264  0.89521057
   0.43835039  0.33325187  0.22863568
   0.77236684  0.00040877  0.89457899
   0.56181870  0.89478902  0.56175798
   0.43865925  0.10549905  0.22850692
   0.43951841  0.10602589  0.43844766
 
 position of ions in cartesian coordinates  (Angst):
   3.13767387  7.92887226  8.37035605
   2.95453016  9.48810980  6.56205193
   2.95453016 10.56651980  6.56205193
   3.88846016  8.94890480  6.56205193
   2.02060016  8.94890480  6.56205193
  -2.04018398  3.97444557 12.41916148
   0.00516683  5.07803723  7.97047131
   6.86412868  1.11165988  3.01552409
   6.86091852  9.04131631 12.90864579
   2.45967719  6.50751342 11.89763054
  -4.38641630 10.45805608  1.95760117
  -2.47409455  6.50553345 11.87652160
   4.41704226  2.54931881  6.94498148
   4.39110424 10.46182077  1.98244813
  -2.47153195  9.35821655  7.94947571
  11.67932760  1.17499606  1.84352770
   2.46093627  1.42690188 12.92196933
   8.89184726  5.12772432  6.80103192
  -0.00017721 10.27563902  8.09686528
  11.32048612  3.74493534  2.48501340
   2.03282057 11.88303081  7.43941878
  -4.44023437  7.69655209  7.44272249
   2.41103592  3.73868848  2.48747792
   8.89065580  7.92028589  2.48032330
   2.42141407  4.18155313  7.45279070
   9.26587399  0.20975612  2.46585735
   2.40798352 11.67328437 12.41231903
  -2.41178878  4.20235071  7.43469978
   9.35021378  2.52926985  6.93254294
   4.45478087  0.21860267  2.48153706
   9.32823816  5.38185179  2.98547480
   2.02923859  3.97051079 12.42088095
  -0.00542160 10.78360429 11.89235079
  -3.58812641  7.95235214  9.92668761
   8.68371544  0.85928756  4.95639456
   8.63199138  8.78077005 14.88967053
   1.78610335 11.04272056  9.92747368
   8.66203935  7.05082830  4.96079924
   1.78835324  3.09313028  0.00621735
   3.28091567  3.94316413  4.96984087
   6.86628073  6.81885026  6.92456647
   3.29258027 11.87469081 14.88844619
   2.46983497  9.35107142  7.97495357
   3.59045173  7.92338684  9.93437017
   3.58558406  0.01117219 14.88833484
  -1.79446031  4.80987833  9.92714060
   5.05607673  0.87151112  4.96661781
   1.79739309  4.82182535  9.93448096
   5.08253756  8.81591632 14.88925509
   4.38421001  5.39102556  3.01526452
  11.25290671  1.43154766 12.92402173
  -1.79798266 11.02275956  9.92722840
   4.82224490  5.15215291  6.78604783
   5.07393100  7.08677223  4.96139616
  10.43606358  3.96363415  4.95915718
   4.84576342  0.00797871  7.44916848
  -2.42179536 11.67878838 12.40543557
   6.86482885  9.54457969  1.85022513
  -2.04317863  9.10889578 11.77425180
  -0.00100987  2.83850222  1.97238418
   6.87834387  1.61009933  6.77532252
  -0.00510437  5.57479584 11.75682354
   2.04077452  1.16963610  1.84230036
  -1.79109498  3.10113557  0.00643176
  -4.82635566 10.71369370 13.06207207
   4.82759394 10.72116519 13.03287810
   2.04746447  6.74731301  8.09891922
   2.03336620  9.10914225 11.75325770
   6.85949875  6.30719767  3.13441989
  -2.02701299  6.75955626  8.11659803
   4.82668120  2.78857285  3.12137058
   4.45405866  7.71431878  7.44940755
   8.90929007  2.77860032  3.11329406
   4.43852261  8.14914372 12.42171824
  -4.45252599  8.14679595 12.41295186
  -0.00583390  2.36003257 13.05630259
   4.83361842  7.91844935  2.46726817
   1.55852837 10.64656765 11.49046504
   8.42211153  9.17372411 13.32378094
   9.99514085  3.96208731  3.39228680
   3.72667086 11.88069068  1.56700087
  -1.56014217  5.21732612  8.36749383
   1.56425861  5.21800249 11.49663143
  -5.30205048  9.17966817  1.56660867
  -1.56991484 10.64383194 11.49389668
  -3.73080573 11.88701979  1.56494757
   1.56298651  2.70484308  1.57113113
  -1.57273406  5.21629336 11.48880974
   8.44721989  1.24760621  6.51986702
  -1.56556289  2.71170033  1.57094842
   9.99625135  3.95934370  6.52620104
  -1.56740767 10.63892862  8.36208342
   8.42981320  6.66762777  6.52606093
  -3.13656861  7.93287717 11.49117633
   1.57033255  5.21193805  8.37001010
   8.42853570  6.66560893  3.39606922
   5.29931035  9.18475691  1.56890064
   5.30111569  6.68813910  6.52415633
   3.73763148  3.96197533  6.53256840
  -3.12920221  7.93566475  8.36423682
   3.13119924  0.00712180 13.32469185
   5.29353617  6.67582346  3.40046638
   3.12743895  7.92806033 11.49564369
  12.15696135  2.71378778 13.32899027
   5.30012731  9.18704139 13.31981400
   8.43321644  1.24500776  3.39428988
   1.56239319  2.71258374 13.33011746
   3.72899763  3.96094131  3.40445958
  10.60010695  0.00245822 13.31953036
   1.56660922 10.63799623  8.36562414
   5.29761308  1.25275033  3.40212733
   5.30547301  1.25928542  6.52822412
 


--------------------------------------------------------------------------------------------------------


 k-point  1 :   0.0000 0.0000 0.0000  plane waves:   44137

 maximum and minimum number of plane-waves per node :      7363     7350

 maximum number of plane-waves:     44137
 maximum index in each direction: 
   IXMAX=   22   IYMAX=   22   IZMAX=   24
   IXMIN=  -22   IYMIN=  -22   IZMIN=  -24

 WARNING: aliasing errors must be expected set NGX to  90 to avoid them
 WARNING: aliasing errors must be expected set NGY to  90 to avoid them
 WARNING: aliasing errors must be expected set NGZ to  98 to avoid them
 aliasing errors are usually negligible using standard VASP settings
 and one can safely disregard these warnings

 real space projection operators:
  total allocation   :      10723.76 KBytes
  max/ min on nodes  :       1851.12       1697.29


 parallel 3D FFT for wavefunctions:
    minimum data exchange during FFTs selected (reduces bandwidth)
 parallel 3D FFT for charge:
    minimum data exchange during FFTs selected (reduces bandwidth)


 total amount of memory used by VASP on root node    53529. kBytes
========================================================================

   base      :      30000. kBytes
   nonlr-proj:       5703. kBytes
   fftplans  :       4343. kBytes
   grid      :       8131. kBytes
   one-center:         58. kBytes
   wavefun   :       5294. kBytes
 
     INWAV:  cpu time    0.0000: real time    0.0001
 Broyden mixing: mesh for mixing (old mesh)
   NGX = 45   NGY = 45   NGZ = 49
  (NGX  =140   NGY  =140   NGZ  =160)
  gives a total of  99225 points

 initial charge density was supplied:
 charge density of overlapping atoms calculated
 number of electron     582.0000000 magnetization 
 keeping initial charge density in first step


--------------------------------------------------------------------------------------------------------


 Maximum index for non-local projection operator          359
 Maximum index for augmentation-charges          336 (set IRDMAX)


--------------------------------------------------------------------------------------------------------


 First call to EWALD:  gamma=   0.132
 Maximum number of real-space cells 3x 3x 3
 Maximum number of reciprocal cells 3x 3x 3

 FEWALD executed in parallel
    FEWALD:  cpu time    0.0064: real time    0.0064


----------------------------------------- Iteration    1(   1)  ---------------------------------------


    POTLOK:  cpu time    0.2557: real time    0.2613
    SETDIJ:  cpu time    0.0058: real time    0.0058
     EDDAV:  cpu time    2.2330: real time    2.2467
       DOS:  cpu time    0.0005: real time    0.0005
    --------------------------------------------
      LOOP:  cpu time    2.5049: real time    2.5408

 eigenvalue-minimisations  :   760
 total energy-change (2. order) : 0.4445460E+04  (-0.2451219E+05)
 number of electron     582.0000000 magnetization 
 augmentation part      582.0000000 magnetization 

 Free energy of the ion-electron system (eV)
  ---------------------------------------------------
  alpha Z        PSCENC =       476.21782353
  Ewald energy   TEWEN  =     -2343.95147182
  -Hartree energ DENC   =    -28801.53527401
  -exchange      EXHF   =         0.00000000
  -V(xc)+E(xc)   XCENC  =      1691.84403874
  PAW double counting   =     28217.01960844   -27699.40053531
  entropy T*S    EENTRO =        -0.13415720
  eigenvalues    EBANDS =     -2062.95209540
  atomic energy  EATOM  =     34968.35250874
  Solvation  Ediel_sol  =         0.00000000
  ---------------------------------------------------
  free energy    TOTEN  =      4445.46044572 eV

  energy without entropy =     4445.59460291  energy(sigma->0) =     4445.52752431


--------------------------------------------------------------------------------------------------------




----------------------------------------- Iteration    1(   2)  ---------------------------------------


     EDDAV:  cpu time    2.5673: real time    2.5825
       DOS:  cpu time    0.0003: real time    0.0003
    --------------------------------------------
      LOOP:  cpu time    2.5705: real time    2.5869

 eigenvalue-minimisations  :   880
 total energy-change (2. order) :-0.4861501E+04  (-0.4760909E+04)
 number of electron     582.0000000 magnetization 
 augmentation part      582.0000000 magnetization 

 Free energy of the ion-electron system (eV)
  ---------------------------------------------------
  alpha Z        PSCENC =       476.21782353
  Ewald energy   TEWEN  =     -2343.95147182
  -Hartree energ DENC   =    -28801.53527401
  -exchange      EXHF   =         0.00000000
  -V(xc)+E(xc)   XCENC  =      1691.84403874
  PAW double counting   =     28217.01960844   -27699.40053531
  entropy T*S    EENTRO =        -0.00000000
  eigenvalues    EBANDS =     -6924.58767078
  atomic energy  EATOM  =     34968.35250874
  Solvation  Ediel_sol  =         0.00000000
  ---------------------------------------------------
  free energy    TOTEN  =      -416.04097246 eV

  energy without entropy =     -416.04097246  energy(sigma->0) =     -416.04097246


--------------------------------------------------------------------------------------------------------




----------------------------------------- Iteration    1(   3)  ---------------------------------------


     EDDAV:  cpu time    2.2469: real time    2.2611
       DOS:  cpu time    0.0003: real time    0.0003
    --------------------------------------------
      LOOP:  cpu time    2.2517: real time    2.2675

 eigenvalue-minimisations  :   816
 total energy-change (2. order) :-0.5571848E+03  (-0.5550778E+03)
 number of electron     582.0000000 magnetization 
 augmentation part      582.0000000 magnetization 

 Free energy of the ion-electron system (eV)
  ---------------------------------------------------
  alpha Z        PSCENC =       476.21782353
  Ewald energy   TEWEN  =     -2343.95147182
  -Hartree energ DENC   =    -28801.53527401
  -exchange      EXHF   =         0.00000000
  -V(xc)+E(xc)   XCENC  =      1691.84403874
  PAW double counting   =     28217.01960844   -27699.40053531
  entropy T*S    EENTRO =        -0.00000000
  eigenvalues    EBANDS =     -7481.77247111
  atomic energy  EATOM  =     34968.35250874
  Solvation  Ediel_sol  =         0.00000000
  ---------------------------------------------------
  free energy    TOTEN  =      -973.22577280 eV

  energy without entropy =     -973.22577280  energy(sigma->0) =     -973.22577280


--------------------------------------------------------------------------------------------------------




----------------------------------------- Iteration    1(   4)  ---------------------------------------


     EDDAV:  cpu time    2.2177: real time    2.2311
       DOS:  cpu time    0.0003: real time    0.0003
    --------------------------------------------
      LOOP:  cpu time    2.2228: real time    2.2384

 eigenvalue-minimisations  :   832
 total energy-change (2. order) :-0.1296088E+02  (-0.1292215E+02)
 number of electron     582.0000000 magnetization 
 augmentation part      582.0000000 magnetization 

 Free energy of the ion-electron system (eV)
  ---------------------------------------------------
  alpha Z        PSCENC =       476.21782353
  Ewald energy   TEWEN  =     -2343.95147182
  -Hartree energ DENC   =    -28801.53527401
  -exchange      EXHF   =         0.00000000
  -V(xc)+E(xc)   XCENC  =      1691.84403874
  PAW double counting   =     28217.01960844   -27699.40053531
  entropy T*S    EENTRO =        -0.00000000
  eigenvalues    EBANDS =     -7494.73335460
  atomic energy  EATOM  =     34968.35250874
  Solvation  Ediel_sol  =         0.00000000
  ---------------------------------------------------
  free energy    TOTEN  =      -986.18665629 eV

  energy without entropy =     -986.18665629  energy(sigma->0) =     -986.18665629


--------------------------------------------------------------------------------------------------------




----------------------------------------- Iteration    1(   5)  ---------------------------------------


     EDDAV:  cpu time    2.2099: real time    2.2230
       DOS:  cpu time    0.0005: real time    0.0005
    CHARGE:  cpu time    0.0564: real time    0.0567
    MIXING:  cpu time    0.0030: real time    0.0031
    --------------------------------------------
      LOOP:  cpu time    2.2747: real time    2.2898

 eigenvalue-minimisations  :   832
 total energy-change (2. order) :-0.4044885E+00  (-0.4040402E+00)
 number of electron     582.0000092 magnetization 
 augmentation part       53.4965421 magnetization 

 Broyden mixing:
  rms(total) = 0.85821E+01    rms(broyden)= 0.85776E+01
  rms(prec ) = 0.93558E+01
  weight for this iteration     100.00

 Free energy of the ion-electron system (eV)
  ---------------------------------------------------
  alpha Z        PSCENC =       476.21782353
  Ewald energy   TEWEN  =     -2343.95147182
  -Hartree energ DENC   =    -28801.53527401
  -exchange      EXHF   =         0.00000000
  -V(xc)+E(xc)   XCENC  =      1691.84403874
  PAW double counting   =     28217.01960844   -27699.40053531
  entropy T*S    EENTRO =        -0.00000000
  eigenvalues    EBANDS =     -7495.13784313
  atomic energy  EATOM  =     34968.35250874
  Solvation  Ediel_sol  =         0.00000000
  ---------------------------------------------------
  free energy    TOTEN  =      -986.59114481 eV

  energy without entropy =     -986.59114481  energy(sigma->0) =     -986.59114481


--------------------------------------------------------------------------------------------------------




----------------------------------------- Iteration    1(   6)  ---------------------------------------


    POTLOK:  cpu time    0.0475: real time    0.0477
    SETDIJ:  cpu time    0.0050: real time    0.0051
     EDDAV:  cpu time    2.1419: real time    2.1534
       DOS:  cpu time    0.0004: real time    0.0004
    CHARGE:  cpu time    0.0559: real time    0.0562
    MIXING:  cpu time    0.0020: real time    0.0021
    --------------------------------------------
      LOOP:  cpu time    2.2554: real time    2.2691

 eigenvalue-minimisations  :   800
 total energy-change (2. order) : 0.1168237E+03  (-0.5076846E+02)
 number of electron     582.0000081 magnetization 
 augmentation part       43.4101341 magnetization 

 Broyden mixing:
  rms(total) = 0.39873E+01    rms(broyden)= 0.39853E+01
  rms(prec ) = 0.40730E+01
  weight for this iteration     100.00

 eigenvalues of (default mixing * dielectric matrix)
  average eigenvalue GAMMA=   1.1560
  1.1560

 Free energy of the ion-electron system (eV)
  ---------------------------------------------------
  alpha Z        PSCENC =       476.21782353
  Ewald energy   TEWEN  =     -2343.95147182
  -Hartree energ DENC   =    -30177.80603635
  -exchange      EXHF   =         0.00000000
  -V(xc)+E(xc)   XCENC  =      1779.09478312
  PAW double counting   =     49627.89357564   -49134.66529357
  entropy T*S    EENTRO =        -0.00000000
  eigenvalues    EBANDS =     -6064.90336447
  atomic energy  EATOM  =     34968.35250874
  Solvation  Ediel_sol  =         0.00000000
  ---------------------------------------------------
  free energy    TOTEN  =      -869.76747517 eV

  energy without entropy =     -869.76747517  energy(sigma->0) =     -869.76747517


--------------------------------------------------------------------------------------------------------




----------------------------------------- Iteration    1(   7)  ---------------------------------------


    POTLOK:  cpu time    0.0477: real time    0.0480
    SETDIJ:  cpu time    0.0052: real time    0.0052
     EDDAV:  cpu time    2.4049: real time    2.4186
       DOS:  cpu time    0.0003: real time    0.0003
    CHARGE:  cpu time    0.0579: real time    0.0582
    MIXING:  cpu time    0.0015: real time    0.0016
    --------------------------------------------
      LOOP:  cpu time    2.5200: real time    2.5363

 eigenvalue-minimisations  :   920
 total energy-change (2. order) : 0.6437396E+00  (-0.1718682E+01)
 number of electron     582.0000081 magnetization 
 augmentation part       42.5505412 magnetization 

 Broyden mixing:
  rms(total) = 0.15045E+01    rms(broyden)= 0.15043E+01
  rms(prec ) = 0.15756E+01
  weight for this iteration     100.00

 eigenvalues of (default mixing * dielectric matrix)
  average eigenvalue GAMMA=   1.2746
  1.2746  1.2746

 Free energy of the ion-electron system (eV)
  ---------------------------------------------------
  alpha Z        PSCENC =       476.21782353
  Ewald energy   TEWEN  =     -2343.95147182
  -Hartree energ DENC   =    -30402.52829037
  -exchange      EXHF   =         0.00000000
  -V(xc)+E(xc)   XCENC  =      1791.66370564
  PAW double counting   =     72537.09103595   -72044.15754618
  entropy T*S    EENTRO =        -0.00000000
  eigenvalues    EBANDS =     -5851.81150108
  atomic energy  EATOM  =     34968.35250874
  Solvation  Ediel_sol  =         0.00000000
  ---------------------------------------------------
  free energy    TOTEN  =      -869.12373559 eV

  energy without entropy =     -869.12373559  energy(sigma->0) =     -869.12373559


--------------------------------------------------------------------------------------------------------




----------------------------------------- Iteration    1(   8)  ---------------------------------------


    POTLOK:  cpu time    0.0489: real time    0.0492
    SETDIJ:  cpu time    0.0051: real time    0.0051
     EDDAV:  cpu time    2.1979: real time    2.2100
       DOS:  cpu time    0.0003: real time    0.0003
    CHARGE:  cpu time    0.0558: real time    0.0561
    MIXING:  cpu time    0.0014: real time    0.0014
    --------------------------------------------
      LOOP:  cpu time    2.3123: real time    2.3265

 eigenvalue-minimisations  :   816
 total energy-change (2. order) : 0.5284233E+00  (-0.1286171E+00)
 number of electron     582.0000081 magnetization 
 augmentation part       42.8143088 magnetization 

 Broyden mixing:
  rms(total) = 0.61056E+00    rms(broyden)= 0.61055E+00
  rms(prec ) = 0.65738E+00
  weight for this iteration     100.00

 eigenvalues of (default mixing * dielectric matrix)
  average eigenvalue GAMMA=   1.5378
  1.0852  1.0852  2.4430

 Free energy of the ion-electron system (eV)
  ---------------------------------------------------
  alpha Z        PSCENC =       476.21782353
  Ewald energy   TEWEN  =     -2343.95147182
  -Hartree energ DENC   =    -30493.39661665
  -exchange      EXHF   =         0.00000000
  -V(xc)+E(xc)   XCENC  =      1795.58147436
  PAW double counting   =     83812.99181669   -83320.28526612
  entropy T*S    EENTRO =        -0.00000000
  eigenvalues    EBANDS =     -5764.10558099
  atomic energy  EATOM  =     34968.35250874
  Solvation  Ediel_sol  =         0.00000000
  ---------------------------------------------------
  free energy    TOTEN  =      -868.59531226 eV

  energy without entropy =     -868.59531226  energy(sigma->0) =     -868.59531226


--------------------------------------------------------------------------------------------------------




----------------------------------------- Iteration    1(   9)  ---------------------------------------


    POTLOK:  cpu time    0.0442: real time    0.0445
    SETDIJ:  cpu time    0.0048: real time    0.0049
     EDDAV:  cpu time    2.2176: real time    2.2305
       DOS:  cpu time    0.0003: real time    0.0003
    CHARGE:  cpu time    0.0561: real time    0.0563
    MIXING:  cpu time    0.0015: real time    0.0015
    --------------------------------------------
      LOOP:  cpu time    2.3273: real time    2.3423

 eigenvalue-minimisations  :   832
 total energy-change (2. order) : 0.1694649E+00  (-0.4685689E-01)
 number of electron     582.0000081 magnetization 
 augmentation part       42.7126303 magnetization 

 Broyden mixing:
  rms(total) = 0.10082E+00    rms(broyden)= 0.10078E+00
  rms(prec ) = 0.13160E+00
  weight for this iteration     100.00

 eigenvalues of (default mixing * dielectric matrix)
  average eigenvalue GAMMA=   1.4994
  2.4999  1.0342  1.0342  1.4293

 Free energy of the ion-electron system (eV)
  ---------------------------------------------------
  alpha Z        PSCENC =       476.21782353
  Ewald energy   TEWEN  =     -2343.95147182
  -Hartree energ DENC   =    -30622.70592511
  -exchange      EXHF   =         0.00000000
  -V(xc)+E(xc)   XCENC  =      1802.07111268
  PAW double counting   =     92655.97257841   -92164.08200096
  entropy T*S    EENTRO =        -0.00000000
  eigenvalues    EBANDS =     -5640.30047278
  atomic energy  EATOM  =     34968.35250874
  Solvation  Ediel_sol  =         0.00000000
  ---------------------------------------------------
  free energy    TOTEN  =      -868.42584731 eV

  energy without entropy =     -868.42584731  energy(sigma->0) =     -868.42584731


--------------------------------------------------------------------------------------------------------




----------------------------------------- Iteration    1(  10)  ---------------------------------------


    POTLOK:  cpu time    0.0462: real time    0.0464
    SETDIJ:  cpu time    0.0051: real time    0.0052
     EDDAV:  cpu time    2.1567: real time    2.1684
       DOS:  cpu time    0.0004: real time    0.0004
    CHARGE:  cpu time    0.0547: real time    0.0549
    MIXING:  cpu time    0.0017: real time    0.0017
    --------------------------------------------
      LOOP:  cpu time    2.2667: real time    2.2812

 eigenvalue-minimisations  :   816
 total energy-change (2. order) : 0.5110064E-03  (-0.1113234E-01)
 number of electron     582.0000081 magnetization 
 augmentation part       42.6534849 magnetization 

 Broyden mixing:
  rms(total) = 0.73197E-01    rms(broyden)= 0.73169E-01
  rms(prec ) = 0.94032E-01
  weight for this iteration     100.00

 eigenvalues of (default mixing * dielectric matrix)
  average eigenvalue GAMMA=   1.3721
  2.5251  1.5792  0.9779  0.9779  0.8003

 Free energy of the ion-electron system (eV)
  ---------------------------------------------------
  alpha Z        PSCENC =       476.21782353
  Ewald energy   TEWEN  =     -2343.95147182
  -Hartree energ DENC   =    -30651.91552378
  -exchange      EXHF   =         0.00000000
  -V(xc)+E(xc)   XCENC  =      1803.02005141
  PAW double counting   =     92278.53874931   -91786.59184585
  entropy T*S    EENTRO =        -0.00000000
  eigenvalues    EBANDS =     -5612.09562785
  atomic energy  EATOM  =     34968.35250874
  Solvation  Ediel_sol  =         0.00000000
  ---------------------------------------------------
  free energy    TOTEN  =      -868.42533631 eV

  energy without entropy =     -868.42533631  energy(sigma->0) =     -868.42533631


--------------------------------------------------------------------------------------------------------




----------------------------------------- Iteration    1(  11)  ---------------------------------------


    POTLOK:  cpu time    0.0458: real time    0.0462
    SETDIJ:  cpu time    0.0051: real time    0.0051
     EDDAV:  cpu time    2.1076: real time    2.1216
       DOS:  cpu time    0.0003: real time    0.0004
    CHARGE:  cpu time    0.0574: real time    0.0578
    MIXING:  cpu time    0.0016: real time    0.0016
    --------------------------------------------
      LOOP:  cpu time    2.2194: real time    2.2369

 eigenvalue-minimisations  :   792
 total energy-change (2. order) : 0.3088696E-03  (-0.1651758E-02)
 number of electron     582.0000081 magnetization 
 augmentation part       42.6766701 magnetization 

 Broyden mixing:
  rms(total) = 0.38046E-01    rms(broyden)= 0.38042E-01
  rms(prec ) = 0.59328E-01
  weight for this iteration     100.00

 eigenvalues of (default mixing * dielectric matrix)
  average eigenvalue GAMMA=   1.4661
  2.5144  2.1002  1.0534  1.0534  1.0376  1.0376

 Free energy of the ion-electron system (eV)
  ---------------------------------------------------
  alpha Z        PSCENC =       476.21782353
  Ewald energy   TEWEN  =     -2343.95147182
  -Hartree energ DENC   =    -30661.77358801
  -exchange      EXHF   =         0.00000000
  -V(xc)+E(xc)   XCENC  =      1803.12903626
  PAW double counting   =     91948.86553214   -91456.79258771
  entropy T*S    EENTRO =        -0.00000000
  eigenvalues    EBANDS =     -5602.47228056
  atomic energy  EATOM  =     34968.35250874
  Solvation  Ediel_sol  =         0.00000000
  ---------------------------------------------------
  free energy    TOTEN  =      -868.42502744 eV

  energy without entropy =     -868.42502744  energy(sigma->0) =     -868.42502744


--------------------------------------------------------------------------------------------------------




----------------------------------------- Iteration    1(  12)  ---------------------------------------


    POTLOK:  cpu time    0.0437: real time    0.0440
    SETDIJ:  cpu time    0.0051: real time    0.0052
     EDDAV:  cpu time    2.0784: real time    2.0928
       DOS:  cpu time    0.0003: real time    0.0003
    CHARGE:  cpu time    0.0552: real time    0.0555
    MIXING:  cpu time    0.0016: real time    0.0016
    --------------------------------------------
      LOOP:  cpu time    2.1872: real time    2.2042

 eigenvalue-minimisations  :   784
 total energy-change (2. order) :-0.5526202E-02  (-0.8556490E-03)
 number of electron     582.0000081 magnetization 
 augmentation part       42.6734025 magnetization 

 Broyden mixing:
  rms(total) = 0.14484E-01    rms(broyden)= 0.14472E-01
  rms(prec ) = 0.31497E-01
  weight for this iteration     100.00

 eigenvalues of (default mixing * dielectric matrix)
  average eigenvalue GAMMA=   1.5496
  3.0688  2.5260  1.1829  1.1829  0.9793  0.9534  0.9534

 Free energy of the ion-electron system (eV)
  ---------------------------------------------------
  alpha Z        PSCENC =       476.21782353
  Ewald energy   TEWEN  =     -2343.95147182
  -Hartree energ DENC   =    -30679.65315890
  -exchange      EXHF   =         0.00000000
  -V(xc)+E(xc)   XCENC  =      1803.46072896
  PAW double counting   =     91523.95684504   -91031.78379484
  entropy T*S    EENTRO =        -0.00000000
  eigenvalues    EBANDS =     -5585.03003436
  atomic energy  EATOM  =     34968.35250874
  Solvation  Ediel_sol  =         0.00000000
  ---------------------------------------------------
  free energy    TOTEN  =      -868.43055364 eV

  energy without entropy =     -868.43055364  energy(sigma->0) =     -868.43055364


--------------------------------------------------------------------------------------------------------




----------------------------------------- Iteration    1(  13)  ---------------------------------------


    POTLOK:  cpu time    0.0445: real time    0.0449
    SETDIJ:  cpu time    0.0048: real time    0.0048
     EDDAV:  cpu time    2.2673: real time    2.2826
       DOS:  cpu time    0.0003: real time    0.0003
    CHARGE:  cpu time    0.0542: real time    0.0546
    MIXING:  cpu time    0.0018: real time    0.0018
    --------------------------------------------
      LOOP:  cpu time    2.3757: real time    2.3935

 eigenvalue-minimisations  :   840
 total energy-change (2. order) :-0.1152895E-01  (-0.6513516E-03)
 number of electron     582.0000081 magnetization 
 augmentation part       42.6813401 magnetization 

 Broyden mixing:
  rms(total) = 0.22367E-01    rms(broyden)= 0.22363E-01
  rms(prec ) = 0.26616E-01
  weight for this iteration     100.00

 eigenvalues of (default mixing * dielectric matrix)
  average eigenvalue GAMMA=   1.5748
  3.2257  2.5416  1.6061  1.1013  1.1013  0.9237  1.0494  1.0494

 Free energy of the ion-electron system (eV)
  ---------------------------------------------------
  alpha Z        PSCENC =       476.21782353
  Ewald energy   TEWEN  =     -2343.95147182
  -Hartree energ DENC   =    -30693.26548443
  -exchange      EXHF   =         0.00000000
  -V(xc)+E(xc)   XCENC  =      1803.61301149
  PAW double counting   =     91322.87692854   -90830.61104875
  entropy T*S    EENTRO =        -0.00000000
  eigenvalues    EBANDS =     -5571.67434988
  atomic energy  EATOM  =     34968.35250874
  Solvation  Ediel_sol  =         0.00000000
  ---------------------------------------------------
  free energy    TOTEN  =      -868.44208258 eV

  energy without entropy =     -868.44208258  energy(sigma->0) =     -868.44208258


--------------------------------------------------------------------------------------------------------




----------------------------------------- Iteration    1(  14)  ---------------------------------------


    POTLOK:  cpu time    0.0448: real time    0.0452
    SETDIJ:  cpu time    0.0060: real time    0.0060
     EDDAV:  cpu time    2.0893: real time    2.1004
       DOS:  cpu time    0.0003: real time    0.0003
    CHARGE:  cpu time    0.0543: real time    0.0545
    MIXING:  cpu time    0.0018: real time    0.0018
    --------------------------------------------
      LOOP:  cpu time    2.1989: real time    2.2127

 eigenvalue-minimisations  :   792
 total energy-change (2. order) :-0.8211801E-02  (-0.5645857E-03)
 number of electron     582.0000081 magnetization 
 augmentation part       42.6783743 magnetization 

 Broyden mixing:
  rms(total) = 0.11187E-01    rms(broyden)= 0.11178E-01
  rms(prec ) = 0.13696E-01
  weight for this iteration     100.00

 eigenvalues of (default mixing * dielectric matrix)
  average eigenvalue GAMMA=   1.5999
  3.5263  2.5565  1.8842  1.1496  1.1496  0.9425  1.0843  1.0529  1.0529

 Free energy of the ion-electron system (eV)
  ---------------------------------------------------
  alpha Z        PSCENC =       476.21782353
  Ewald energy   TEWEN  =     -2343.95147182
  -Hartree energ DENC   =    -30698.85448072
  -exchange      EXHF   =         0.00000000
  -V(xc)+E(xc)   XCENC  =      1803.66536694
  PAW double counting   =     91503.84384728   -91011.59511617
  entropy T*S    EENTRO =        -0.00000000
  eigenvalues    EBANDS =     -5566.12877217
  atomic energy  EATOM  =     34968.35250874
  Solvation  Ediel_sol  =         0.00000000
  ---------------------------------------------------
  free energy    TOTEN  =      -868.45029438 eV

  energy without entropy =     -868.45029438  energy(sigma->0) =     -868.45029438


--------------------------------------------------------------------------------------------------------




----------------------------------------- Iteration    1(  15)  ---------------------------------------


    POTLOK:  cpu time    0.0550: real time    0.0552
    SETDIJ:  cpu time    0.0048: real time    0.0048
     EDDAV:  cpu time    2.2557: real time    2.2679
       DOS:  cpu time    0.0003: real time    0.0003
    CHARGE:  cpu time    0.0544: real time    0.0547
    MIXING:  cpu time    0.0020: real time    0.0020
    --------------------------------------------
      LOOP:  cpu time    2.3746: real time    2.3893

 eigenvalue-minimisations  :   848
 total energy-change (2. order) :-0.3011834E-02  (-0.1472085E-03)
 number of electron     582.0000081 magnetization 
 augmentation part       42.6722469 magnetization 

 Broyden mixing:
  rms(total) = 0.55736E-02    rms(broyden)= 0.55690E-02
  rms(prec ) = 0.69535E-02
  weight for this iteration     100.00

 eigenvalues of (default mixing * dielectric matrix)
  average eigenvalue GAMMA=   1.6864
  4.4030  2.8580  2.4559  1.0629  1.0629  1.1153  1.1153  1.0462  0.8723  0.8723

 Free energy of the ion-electron system (eV)
  ---------------------------------------------------
  alpha Z        PSCENC =       476.21782353
  Ewald energy   TEWEN  =     -2343.95147182
  -Hartree energ DENC   =    -30701.90757519
  -exchange      EXHF   =         0.00000000
  -V(xc)+E(xc)   XCENC  =      1803.72468652
  PAW double counting   =     91580.03261357   -91087.79757255
  entropy T*S    EENTRO =        -0.00000000
  eigenvalues    EBANDS =     -5563.12431902
  atomic energy  EATOM  =     34968.35250874
  Solvation  Ediel_sol  =         0.00000000
  ---------------------------------------------------
  free energy    TOTEN  =      -868.45330622 eV

  energy without entropy =     -868.45330622  energy(sigma->0) =     -868.45330622


--------------------------------------------------------------------------------------------------------




----------------------------------------- Iteration    1(  16)  ---------------------------------------


    POTLOK:  cpu time    0.0436: real time    0.0439
    SETDIJ:  cpu time    0.0048: real time    0.0049
     EDDAV:  cpu time    2.3238: real time    2.3381
       DOS:  cpu time    0.0004: real time    0.0004
    CHARGE:  cpu time    0.0539: real time    0.0543
    MIXING:  cpu time    0.0022: real time    0.0023
    --------------------------------------------
      LOOP:  cpu time    2.4311: real time    2.4485

 eigenvalue-minimisations  :   776
 total energy-change (2. order) :-0.1630434E-02  (-0.2629372E-04)
 number of electron     582.0000081 magnetization 
 augmentation part       42.6722011 magnetization 

 Broyden mixing:
  rms(total) = 0.52537E-02    rms(broyden)= 0.52533E-02
  rms(prec ) = 0.57334E-02
  weight for this iteration     100.00

 eigenvalues of (default mixing * dielectric matrix)
  average eigenvalue GAMMA=   1.7271
  5.3276  2.7891  2.4276  1.1112  1.1112  0.9870  0.9870  1.1780  1.1780  1.0564
  0.8455

 Free energy of the ion-electron system (eV)
  ---------------------------------------------------
  alpha Z        PSCENC =       476.21782353
  Ewald energy   TEWEN  =     -2343.95147182
  -Hartree energ DENC   =    -30703.32866251
  -exchange      EXHF   =         0.00000000
  -V(xc)+E(xc)   XCENC  =      1803.72808045
  PAW double counting   =     91635.24143791   -91143.01180657
  entropy T*S    EENTRO =        -0.00000000
  eigenvalues    EBANDS =     -5561.70284639
  atomic energy  EATOM  =     34968.35250874
  Solvation  Ediel_sol  =         0.00000000
  ---------------------------------------------------
  free energy    TOTEN  =      -868.45493665 eV

  energy without entropy =     -868.45493665  energy(sigma->0) =     -868.45493665


--------------------------------------------------------------------------------------------------------




----------------------------------------- Iteration    1(  17)  ---------------------------------------


    POTLOK:  cpu time    0.0435: real time    0.0439
    SETDIJ:  cpu time    0.0048: real time    0.0048
     EDDAV:  cpu time    2.1309: real time    2.1443
       DOS:  cpu time    0.0004: real time    0.0004
    CHARGE:  cpu time    0.0558: real time    0.0565
    MIXING:  cpu time    0.0022: real time    0.0022
    --------------------------------------------
      LOOP:  cpu time    2.2401: real time    2.2570

 eigenvalue-minimisations  :   808
[...]
   0.226E+03 0.930E+00 -.301E+01   -.243E+03 -.153E+01 0.199E+01   0.174E+02 0.603E+00 0.103E+01   -.149E-02 0.174E-02 -.821E-03
   -.109E+03 -.200E+03 0.180E+01   0.119E+03 0.218E+03 -.182E+01   -.959E+01 -.176E+02 0.368E-01   -.722E-03 0.222E-04 -.893E-03
   -.103E+02 -.896E+02 -.156E+03   0.108E+02 0.104E+03 0.170E+03   -.500E+00 -.147E+02 -.140E+02   0.901E-03 -.444E-03 0.811E-03
   -.698E+02 0.423E+02 -.152E+03   0.832E+02 -.503E+02 0.163E+03   -.135E+02 0.802E+01 -.111E+02   -.107E-02 -.117E-02 0.635E-03
   -.354E+01 -.123E+03 -.200E+03   0.378E+01 0.128E+03 0.218E+03   -.226E+00 -.542E+01 -.184E+02   -.875E-03 -.748E-03 0.511E-03
   0.150E+02 -.105E+03 -.155E+03   -.167E+02 0.122E+03 0.164E+03   0.166E+01 -.176E+02 -.942E+01   -.275E-02 0.279E-03 0.435E-03
   -.190E+01 -.771E+02 -.143E+03   0.263E+01 0.916E+02 0.154E+03   -.730E+00 -.145E+02 -.105E+02   -.151E-02 -.191E-02 0.837E-03
   0.695E+02 0.409E+02 -.148E+03   -.827E+02 -.487E+02 0.159E+03   0.133E+02 0.773E+01 -.118E+02   -.113E-02 -.897E-03 0.133E-02
   0.115E+03 -.214E+03 0.176E+01   -.124E+03 0.231E+03 -.194E+01   0.838E+01 -.174E+02 0.179E+00   0.139E-02 0.126E-02 0.663E-03
   0.740E+02 -.413E+02 0.154E+03   -.871E+02 0.488E+02 -.166E+03   0.132E+02 -.749E+01 0.115E+02   -.783E-03 -.171E-03 0.628E-03
   -.749E+02 -.419E+02 0.154E+03   0.875E+02 0.486E+02 -.166E+03   -.126E+02 -.680E+01 0.122E+02   0.130E-02 0.121E-02 0.166E-02
   0.443E+02 -.614E+02 0.118E+03   -.543E+02 0.787E+02 -.128E+03   0.101E+02 -.172E+02 0.950E+01   0.467E-03 -.128E-02 -.116E-02
   0.961E+02 0.592E+02 -.195E+03   -.109E+03 -.688E+02 0.213E+03   0.130E+02 0.956E+01 -.181E+02   0.221E-03 -.802E-03 -.504E-03
   -.373E+01 0.856E+02 0.153E+03   0.355E+01 -.997E+02 -.164E+03   0.206E+00 0.140E+02 0.107E+02   0.668E-03 0.118E-02 0.105E-03
   -.679E+02 -.359E+02 0.140E+03   0.800E+02 0.420E+02 -.152E+03   -.121E+02 -.614E+01 0.121E+02   -.582E-03 -.384E-03 -.740E-04
   -.718E+02 -.436E+02 0.155E+03   0.849E+02 0.518E+02 -.166E+03   -.131E+02 -.819E+01 0.106E+02   0.163E-03 0.151E-03 0.192E-02
   -.105E+03 -.156E+03 -.992E+02   0.108E+03 0.174E+03 0.107E+03   -.346E+01 -.177E+02 -.822E+01   -.141E-02 -.131E-02 -.181E-02
   0.646E+02 -.438E+02 0.144E+03   -.765E+02 0.512E+02 -.153E+03   0.120E+02 -.735E+01 0.895E+01   0.110E-02 0.410E-04 0.930E-03
   -.104E+03 0.226E+03 -.134E+02   0.111E+03 -.247E+03 0.160E+02   -.757E+01 0.209E+02 -.255E+01   0.942E-03 -.390E-03 0.632E-03
   0.114E+03 0.197E+03 -.114E+01   -.123E+03 -.214E+03 0.157E+01   0.939E+01 0.171E+02 -.440E+00   0.523E-03 -.994E-03 0.373E-03
   0.149E+00 0.863E+02 0.157E+03   -.602E-01 -.102E+03 -.169E+03   -.733E-01 0.156E+02 0.121E+02   -.447E-03 0.104E-02 -.191E-03
   0.222E+03 0.928E+01 0.177E+02   -.243E+03 -.932E+01 -.177E+02   0.208E+02 0.266E-01 0.235E-01   0.164E-02 0.109E-02 0.339E-03
   0.133E+02 -.691E+02 -.447E+02   -.131E+02 0.675E+02 0.465E+02   -.240E+00 0.161E+01 -.178E+01   -.219E-03 0.788E-03 -.208E-03
   0.743E+01 0.716E+02 0.491E+02   -.734E+01 -.708E+02 -.486E+02   -.845E-01 -.728E+00 -.444E+00   0.267E-03 -.637E-03 0.881E-03
   -.540E+02 -.418E+02 0.508E+02   0.543E+02 0.416E+02 -.501E+02   -.255E+00 0.184E+00 -.681E+00   0.373E-03 0.402E-03 -.384E-03
   0.574E+02 0.343E+02 -.327E+02   -.566E+02 -.339E+02 0.323E+02   -.825E+00 -.369E+00 0.438E+00   0.998E-03 0.318E-03 0.667E-03
   -.670E+01 0.668E+02 0.359E+02   0.736E+01 -.671E+02 -.357E+02   -.672E+00 0.283E+00 -.216E+00   0.190E-03 -.776E-03 0.448E-03
   -.663E+02 0.289E+02 -.404E+02   0.662E+02 -.287E+02 0.396E+02   0.905E-01 -.208E+00 0.800E+00   -.594E-03 -.152E-02 -.127E-03
   -.663E+02 0.284E+02 -.385E+02   0.657E+02 -.285E+02 0.382E+02   0.571E+00 0.549E-01 0.317E+00   -.145E-04 -.497E-03 0.811E-03
   -.351E+01 -.696E+02 -.456E+02   0.303E+01 0.692E+02 0.455E+02   0.466E+00 0.415E+00 0.158E+00   -.899E-03 -.397E-04 -.637E-03
   -.584E+02 0.386E+02 -.405E+02   0.579E+02 -.381E+02 0.400E+02   0.457E+00 -.483E+00 0.567E+00   -.933E-03 -.784E-03 0.122E-02
   0.422E+01 -.691E+02 -.428E+02   -.398E+01 0.686E+02 0.421E+02   -.225E+00 0.506E+00 0.650E+00   -.115E-02 -.904E-04 0.350E-03
   0.643E+02 0.282E+02 -.486E+02   -.634E+02 -.283E+02 0.478E+02   -.888E+00 0.847E-01 0.808E+00   -.511E-04 -.102E-02 0.730E-03
   -.484E+02 0.829E+01 -.530E+02   0.479E+02 -.697E+01 0.524E+02   0.477E+00 -.131E+01 0.602E+00   -.126E-02 0.200E-03 -.172E-03
   -.861E+01 -.698E+02 -.412E+02   0.825E+01 0.696E+02 0.405E+02   0.366E+00 0.210E+00 0.691E+00   0.282E-03 0.176E-03 -.172E-03
   -.592E+02 0.395E+02 -.406E+02   0.591E+02 -.383E+02 0.406E+02   0.115E+00 -.121E+01 -.517E-01   0.355E-04 -.212E-03 -.305E-03
   0.694E+02 -.320E+02 0.394E+02   -.699E+02 0.317E+02 -.385E+02   0.486E+00 0.216E+00 -.845E+00   -.510E-03 0.125E-02 -.110E-02
   0.403E+01 -.745E+02 -.421E+02   -.467E+01 0.736E+02 0.421E+02   0.677E+00 0.877E+00 0.174E-01   -.608E-03 -.814E-04 -.105E-02
   0.591E+02 0.403E+02 -.470E+02   -.588E+02 -.401E+02 0.466E+02   -.385E+00 -.197E+00 0.405E+00   -.271E-03 -.682E-03 0.685E-03
   -.465E+01 0.677E+02 0.392E+02   0.516E+01 -.639E+02 -.392E+02   -.514E+00 -.387E+01 -.463E-01   0.921E-03 -.932E-03 -.377E-03
   -.635E+02 -.252E+02 0.506E+02   0.630E+02 0.254E+02 -.499E+02   0.433E+00 -.223E+00 -.750E+00   -.543E-04 0.741E-03 -.472E-03
   0.553E+02 0.257E+02 -.392E+02   -.549E+02 -.260E+02 0.383E+02   -.458E+00 0.320E+00 0.944E+00   0.801E-03 0.986E-04 0.886E-03
   -.103E+02 -.476E+02 -.600E+02   0.873E+01 0.499E+02 0.619E+02   0.158E+01 -.227E+01 -.188E+01   -.443E-03 -.130E-02 -.291E-03
   0.591E+02 0.378E+02 -.517E+02   -.590E+02 -.368E+02 0.516E+02   -.131E+00 -.100E+01 0.103E+00   0.509E-03 -.614E-03 0.470E-03
   0.567E+02 -.386E+02 0.361E+02   -.569E+02 0.379E+02 -.360E+02   0.154E+00 0.672E+00 -.941E-01   0.314E-04 0.178E-03 -.122E-03
   -.554E+02 -.402E+02 0.460E+02   0.549E+02 0.400E+02 -.457E+02   0.477E+00 0.213E+00 -.336E+00   -.799E-03 -.136E-03 -.683E-04
   0.564E+02 -.179E+02 0.533E+02   -.560E+02 0.182E+02 -.522E+02   -.322E+00 -.320E+00 -.116E+01   0.619E-03 0.258E-03 0.363E-03
   -.509E+02 0.541E+02 -.450E+02   0.518E+02 -.533E+02 0.413E+02   -.938E+00 -.809E+00 0.376E+01   0.132E-03 -.112E-02 0.803E-04
   0.642E+02 -.288E+02 0.471E+02   -.635E+02 0.290E+02 -.465E+02   -.726E+00 -.107E+00 -.573E+00   0.384E-03 0.825E-03 -.229E-04
   -.120E+02 0.681E+02 0.494E+02   0.111E+02 -.686E+02 -.491E+02   0.935E+00 0.516E+00 -.235E+00   0.952E-03 0.876E-05 0.102E-02
   0.734E+01 0.604E+02 0.520E+02   -.728E+01 -.597E+02 -.523E+02   -.500E-01 -.753E+00 0.317E+00   0.321E-03 0.106E-04 0.700E-03
   -.630E+02 -.288E+02 0.453E+02   0.626E+02 0.290E+02 -.453E+02   0.370E+00 -.212E+00 -.283E-01   -.128E-02 0.716E-03 -.404E-03
   0.570E+02 -.382E+02 0.500E+02   -.567E+02 0.379E+02 -.492E+02   -.235E+00 0.342E+00 -.809E+00   -.225E-03 0.374E-04 0.144E-02
   0.565E+02 -.429E+02 0.433E+02   -.560E+02 0.425E+02 -.431E+02   -.539E+00 0.383E+00 -.150E+00   0.895E-03 0.128E-02 0.526E-03
   -.549E+02 -.376E+02 0.431E+00   0.522E+02 0.398E+02 0.235E+00   0.275E+01 -.225E+01 -.665E+00   -.591E-03 0.436E-03 -.150E-02
   -.379E+01 0.645E+02 0.528E+02   0.320E+01 -.640E+02 -.522E+02   0.586E+00 -.571E+00 -.628E+00   -.672E-03 -.231E-03 0.163E-02
   0.727E+02 0.273E+02 -.503E+02   -.726E+02 -.267E+02 0.496E+02   -.191E+00 -.602E+00 0.744E+00   -.523E-03 0.763E-03 0.408E-03
 -----------------------------------------------------------------------------------------------
   -.230E+01 0.480E+01 0.246E+02   -.540E-12 -.210E-12 0.533E-12   0.234E+01 -.485E+01 -.246E+02   -.790E-02 -.943E-02 0.147E-01
 
 
 POSITION                                       TOTAL-FORCE (eV/Angst)
 -----------------------------------------------------------------------------------
      3.19586      7.90700      8.45775        -0.022611     -0.011119     -0.023887
      2.70015      9.57325      6.24141        -0.036983     -0.004647      0.021994
      2.72706     10.61408      5.91082        -0.021457      0.002183     -0.001483
      3.64245      9.07479      6.00303        -0.005231     -0.022649     -0.015087
      1.85016      9.03896      5.79986        -0.028876     -0.008263      0.035957
     -2.05637      3.95768     12.44111        -0.003300     -0.011293     -0.007087
     -0.01003      5.00112      8.01718         0.005882     -0.019295     -0.002008
      6.89270      1.11251      3.04273        -0.009998     -0.000215      0.000837
      6.84374      9.02610     12.89685        -0.007070      0.013320     -0.002521
      2.43584      6.49275     11.94012         0.002470     -0.004127      0.012389
     -4.34055     10.44530      1.96661         0.019218     -0.006432      0.010057
     -2.47309      6.50149     11.92541        -0.001026      0.000651     -0.011222
      4.28520      2.48773      6.91563         0.009268     -0.003579     -0.000920
      4.42756     10.46942      2.04249         0.018486      0.007911     -0.007622
     -2.40657      9.31157      7.95735         0.003437     -0.003556      0.006821
     11.68516      1.17593      1.84365         0.010587      0.008456     -0.000924
      2.45665      1.42062     12.90482        -0.005735      0.011822      0.010754
      9.03526      5.19522      6.78186        -0.015274     -0.004426     -0.001528
      0.03030     10.26462      8.13989        -0.018883      0.006021     -0.015463
     11.32967      3.74112      2.47538        -0.011281      0.007286      0.003259
      8.79690      0.18429      7.63828         0.004547      0.029817     -0.015490
     -4.42951      7.76019      7.44093        -0.012076     -0.006432     -0.008130
      2.44597      3.73009      2.46298        -0.002487     -0.000594     -0.008411
      8.95758      7.88550      2.43408        -0.013164     -0.021355      0.007927
      2.43437      4.26072      7.44746         0.001637     -0.002545     -0.001352
      9.30388      0.18627      2.55560         0.008293      0.002452      0.002661
      2.38997     11.69680     12.43782         0.028518      0.003612     -0.015835
     -2.37702      4.10079      7.48892        -0.006808     -0.002703     -0.011557
      9.30361      2.59886      6.88619        -0.017347      0.006931     -0.010194
      4.49423      0.23597      2.43846         0.000188     -0.015118     -0.002304
      9.33196      5.34906      3.02093        -0.002408      0.003144      0.008094
      2.01410      3.95461     12.41913         0.016329     -0.002538      0.030831
     -0.01809     10.82697     11.86147        -0.009336      0.013519     -0.009036
     -3.56476      7.92184      9.93322         0.017135     -0.004306      0.005586
      8.63447      0.78749      5.04558        -0.007036     -0.013477     -0.005677
      8.60751      8.80941     -0.00191        -0.010427     -0.000619      0.003991
      1.88798     10.79585      9.99469         0.028261      0.004497     -0.025815
      8.74380      7.10895      4.93944        -0.007579     -0.000194     -0.020416
      1.77006      3.06264      0.00147        -0.000453      0.010184     -0.007974
      3.26882      3.97710      4.95650         0.006969     -0.007459     -0.004738
      6.94397      6.73910      6.87441        -0.007389     -0.005414     -0.001520
      3.26888     11.84259      0.04687        -0.016926     -0.007926      0.025126
      2.56837      9.54332      7.72379        -0.037772      0.015177     -0.027515
      3.49373      8.17731     10.11293         0.013192      0.022033     -0.016624
      3.57744     -0.00453     -0.02060        -0.004197     -0.002355     -0.002891
     -1.85022      4.80787      9.96042         0.010310      0.006616      0.020215
      5.05237      0.83156      4.94915        -0.013900      0.007311      0.009452
      1.81483      4.81467      9.94138         0.002378      0.015766     -0.007496
      5.17066      8.83775      0.07160        -0.013680     -0.002300      0.013556
      4.42397      5.38641      2.99752         0.004698      0.003559     -0.008959
     11.23835      1.41476     12.98347         0.002452      0.003560      0.002571
     -1.81622     11.02968      9.91477         0.021492      0.006791      0.006136
      4.91588      5.05515      6.75953        -0.022493     -0.002722      0.003345
      5.08376      7.04315      4.98986        -0.008520      0.001531     -0.002459
     10.56135      3.97702      4.97094        -0.014214     -0.008297     -0.008047
      4.88401     -0.02929      7.41988        -0.014667      0.006200      0.010398
     -2.44027     11.66918     12.39027        -0.002895      0.012278      0.018821
      6.91197      9.53491      1.95167         0.003670      0.003526     -0.000551
     -2.02695      9.10217     11.75907        -0.002203      0.002556      0.007706
      0.01879      2.82279      2.00257         0.008100      0.008793      0.009023
      6.80187      1.71477      6.75821        -0.005768     -0.005142      0.013856
     -0.01651      5.54921     11.75524        -0.001180      0.009123      0.002564
      2.05463      1.15347      1.84634         0.017580     -0.001452      0.010996
     -1.74934      3.11075      0.01916         0.001562     -0.014194     -0.003114
     -4.85178     10.71527     13.03947        -0.005446      0.008199      0.014514
      4.79705     10.69416     13.07603        -0.003449     -0.004202      0.002605
      1.90652      6.80710      8.13864         0.011654     -0.015309      0.011894
      1.96966      9.09130     12.07005         0.007310      0.002655     -0.019571
      6.89373      6.33720      3.15459         0.023729     -0.010165     -0.000491
     -2.05758      6.69552      8.09192         0.005839     -0.001493     -0.012106
      4.85093      2.79199      3.14699         0.003468     -0.002533      0.006880
      4.58661      7.62998      7.50501         0.019143      0.000005      0.001973
      8.95731      2.74536      3.24096         0.007675      0.016970     -0.003828
      4.39412      8.08537     12.59131         0.005178      0.010859      0.019123
     -4.44553      8.15552     12.41876        -0.017205      0.003067     -0.010301
     -0.01603      2.32828     13.04155         0.014402      0.004446      0.003804
      4.84496      7.93575      2.53153         0.002455     -0.006289     -0.004751
      1.55823     10.58660     11.59699         0.001820     -0.011159     -0.001645
     -5.32679      9.17987     13.31614         0.004419      0.010106     -0.007243
     10.04009      3.95222      3.42852         0.011218      0.005596      0.009357
      3.73845     11.87025      1.60646         0.017632      0.002155      0.019195
     -1.56355      5.16760      8.40014        -0.011311     -0.004223     -0.003725
      1.56067      5.20993     11.49594        -0.016679     -0.021273     -0.005089
     -5.27046      9.17419      1.57918         0.024120      0.000229     -0.005126
     -1.58160     10.64432     11.48199        -0.009260     -0.000028      0.011528
      3.15835     -0.01038      1.55166         0.014694     -0.001532     -0.006866
      1.57784      2.68983      1.57259         0.006332      0.009152     -0.009624
     -1.58695      5.20428     11.51537        -0.009783      0.010944      0.003196
      8.36742      1.33573      6.56424         0.003871      0.011553     -0.000977
     -1.54092      2.70832      1.57859         0.003387     -0.002738      0.018136
     10.06734      3.97785      6.52091         0.004801      0.011417     -0.013714
     -1.55843     10.62127      8.36485        -0.006448     -0.016275      0.015901
      8.50312      6.70254      6.49870         0.032379      0.007852     -0.002962
     -3.12731      7.92171     11.50381        -0.007116     -0.001667     -0.007046
      1.55263      5.26016      8.38532        -0.005733      0.002587     -0.007562
      8.47118      6.67212      3.39461         0.004388     -0.007477     -0.010388
      5.34654      9.19303      1.64046         0.016558      0.023583      0.019755
      5.36273      6.61913      6.55059        -0.007638     -0.010146     -0.002676
      3.72477      3.96755      6.52567        -0.025570     -0.006952     -0.007861
     -3.11094      7.90674      8.36921         0.007402      0.014092      0.007106
      3.11264     -0.00084     13.30872        -0.002189     -0.009760     -0.005202
      5.32004      6.66872      3.42821         0.010003     -0.010693     -0.032258
      3.08005      7.95108     11.63953         0.019317     -0.011610     -0.002597
     -1.57216      2.70363     13.34479         0.008427      0.020486     -0.003608
      5.29720      9.16640     13.37579         0.019253      0.006073      0.026128
      8.45012      1.21772      3.46999         0.010570     -0.001763     -0.021125
      1.54903      2.69736     13.31968         0.000989     -0.012440      0.002382
      3.74705      3.96921      3.40192         0.006013     -0.012254     -0.005048
     10.58155     -0.01507     13.36424        -0.000674     -0.001261      0.032340
      1.55509     10.71952      8.42659         0.010451     -0.019122      0.000046
      5.31477      1.25192      3.39687        -0.007077     -0.002128     -0.006491
      5.25091      1.25917      6.50726        -0.027326     -0.007415     -0.005051
 -----------------------------------------------------------------------------------
    total drift:                                0.028937     -0.059111     -0.013302


--------------------------------------------------------------------------------------------------------



  FREE ENERGIE OF THE ION-ELECTRON SYSTEM (eV)
  ---------------------------------------------------
  free  energy   TOTEN  =      -872.63539724 eV

  energy  without entropy=     -872.63539724  energy(sigma->0) =     -872.63539724
 
 d Force = 0.1626767E-02[ 0.117E-02, 0.208E-02]  d Energy = 0.1618812E-02 0.796E-05
 d Force = 0.8232923E+00[ 0.832E+00, 0.815E+00]  d Ewald  = 0.8232914E+00 0.857E-06


--------------------------------------------------------------------------------------------------------


    POTLOK:  cpu time    0.0523: real time    0.0528


--------------------------------------------------------------------------------------------------------


 Conjugate gradient step on ions:
 trial-energy change:   -0.001619  1 .order   -0.001627   -0.002082   -0.001172
  (g-gl).g = 0.374E-02      g.g   = 0.452E-02  gl.gl    = 0.535E-02
 g(Force)  = 0.452E-02   g(Stress)= 0.000E+00 ortho     = 0.563E-03
 gamma     =   0.69913
 trial     =   0.42368
 opt step  =   1.05052  (harmonic =   0.96902) maximal distance =0.00579870
 next E    =  -872.636238   (d E  =  -0.00246)


--------------------------------------------------------------------------------------------------------


  
 reached required accuracy - stopping structural energy minimisation
     LOOP+:  cpu time   17.2237: real time   17.4402
    4ORBIT:  cpu time    0.0000: real time    0.0000

 total amount of memory used by VASP on root node    53529. kBytes
========================================================================

   base      :      30000. kBytes
   nonlr-proj:       5703. kBytes
   fftplans  :       4343. kBytes
   grid      :       8131. kBytes
   one-center:         58. kBytes
   wavefun   :       5294. kBytes
 
  
  
 General timing and accounting informations for this job:
 ========================================================
  
                  Total CPU time used (sec):     1564.978
                            User time (sec):     1501.031
                          System time (sec):       63.947
                         Elapsed time (sec):     1582.637
  
                   Maximum memory used (kb):       80108.
                   Average memory used (kb):           0.
  
                          Minor page faults:       288933
                          Major page faults:           10
                 Voluntary context switches:        45680
