<?xml version="1.0" encoding="ISO-8859-1"?>
<modeling>
 <generator>
  <i name="program" type="string">vasp </i>
  <i name="version" type="string">5.4.1  </i>
  <i name="subversion" type="string">05Feb16 (build Feb 08 2018 09:21:51) complex                          parallel </i>
  <i name="platform" type="string">LinuxIFC </i>
  <i name="date" type="string">2019 10 17 </i>
  <i name="time" type="string">10:42:42 </i>
 </generator>
 <incar>
  <i type="string" name="PREC">normal</i>
  <i type="int" name="IBRION">     2</i>
  <i name="EDIFF">      0.00000100</i>
  <i name="EDIFFG">     -0.05000000</i>
  <i type="int" name="NSW">   500</i>
  <i name="ENCUT">    400.00000000</i>
  <i type="string" name="LREAL"> A</i>
  <i type="int" name="ISMEAR">     0</i>
  <i name="SIGMA">      0.10000000</i>
  <i type="logical" name="LWAVE"> F  </i>
  <i type="logical" name="LCHARG"> F  </i>
  <v type="int" name="KPOINT_BSE">    -1     0     0     0</v>
 </incar>
 <kpoints>
  <generation param="Monkhorst-Pack">
   <v type="int" name="divisions">       1        1        1 </v>
   <v name="usershift">      0.00000000       0.00000000       0.00000000 </v>
   <v name="genvec1">      1.00000000      -0.00000000       0.00000000 </v>
   <v name="genvec2">      0.00000000       1.00000000      -0.00000000 </v>
   <v name="genvec3">     -0.00000000       0.00000000       1.00000000 </v>
   <v name="shift">      0.00000000       0.00000000       0.00000000 </v>
  </generation>
  <varray name="kpointlist" >
   <v>       0.00000000       0.00000000       0.00000000 </v>
  </varray>
  <varray name="weights" >
   <v>       1.00000000 </v>
  </varray>
 </kpoints>
 <parameters>
  <separator name="general" >
   <i type="string" name="SYSTEM">unknown system</i>
   <i type="logical" name="LCOMPAT"> F  </i>
  </separator>
  <separator name="electronic" >
   <i type="string" name="PREC">normal</i>
   <i name="ENMAX">    400.00000000</i>
   <i name="ENAUG">    644.87300000</i>
   <i name="EDIFF">      0.00000100</i>
   <i type="int" name="IALGO">    38</i>
   <i type="int" name="IWAVPR">    11</i>
   <i type="int" name="NBANDS">   352</i>
   <i name="NELECT">    582.00000000</i>
   <i type="int" name="TURBO">     0</i>
   <i type="int" name="IRESTART">     0</i>
   <i type="int" name="NREBOOT">     0</i>
   <i type="int" name="NMIN">     0</i>
   <i name="EREF">      0.00000000</i>
   <separator name="electronic smearing" >
    <i type="int" name="ISMEAR">     0</i>
    <i name="SIGMA">      0.10000000</i>
    <i name="KSPACING">      0.50000000</i>
    <i type="logical" name="KGAMMA"> T  </i>
   </separator>
   <separator name="electronic projectors" >
    <i type="logical" name="LREAL"> T  </i>
    <v name="ROPT">     -0.00050000     -0.00050000     -0.00050000     -0.00050000     -0.00050000</v>
    <i type="int" name="LMAXPAW">  -100</i>
    <i type="int" name="LMAXMIX">     2</i>
    <i type="logical" name="NLSPLINE"> F  </i>
   </separator>
   <separator name="electronic startup" >
    <i type="int" name="ISTART">     0</i>
    <i type="int" name="ICHARG">     2</i>
    <i type="int" name="INIWAV">     1</i>
   </separator>
   <separator name="electronic spin" >
    <i type="int" name="ISPIN">     1</i>
    <i type="logical" name="LNONCOLLINEAR"> F  </i>
    <v name="MAGMOM">      1.00000000      1.00000000      1.00000000      1.00000000      1.00000000      1.00000000      1.00000000      1.00000000      1.00000000      1.00000000      1.00000000      1.00000000      1.00000000      1.00000000      1.00000000      1.00000000      1.00000000      1.00000000      1.00000000      1.00000000
      1.00000000      1.00000000      1.00000000      1.00000000      1.00000000      1.00000000      1.00000000      1.00000000      1.00000000      1.00000000      1.00000000      1.00000000      1.00000000      1.00000000      1.00000000      1.00000000      1.00000000      1.00000000      1.00000000      1.00000000
      1.00000000      1.00000000      1.00000000      1.00000000      1.00000000      1.00000000      1.00000000      1.00000000      1.00000000      1.00000000      1.00000000      1.00000000      1.00000000      1.00000000      1.00000000      1.00000000      1.00000000      1.00000000      1.00000000      1.00000000
      1.00000000      1.00000000      1.00000000      1.00000000      1.00000000      1.00000000      1.00000000      1.00000000      1.00000000      1.00000000      1.00000000      1.00000000      1.00000000      1.00000000      1.00000000      1.00000000      1.00000000      1.00000000      1.00000000      1.00000000
      1.00000000      1.00000000      1.00000000      1.00000000      1.00000000      1.00000000      1.00000000      1.00000000      1.00000000      1.00000000      1.00000000      1.00000000      1.00000000      1.00000000      1.00000000      1.00000000      1.00000000      1.00000000      1.00000000      1.00000000
      1.00000000      1.00000000      1.00000000      1.00000000      1.00000000      1.00000000      1.00000000      1.00000000      1.00000000      1.00000000      1.00000000      1.00000000</v>
    <i name="NUPDOWN">     -1.00000000</i>
    <i type="logical" name="LSORBIT"> F  </i>
    <v name="SAXIS">      0.00000000      0.00000000      1.00000000</v>
    <i type="logical" name="LSPIRAL"> F  </i>
    <v name="QSPIRAL">      0.00000000      0.00000000      0.00000000</v>
    <i type="logical" name="LZEROZ"> F  </i>
   </separator>
   <separator name="electronic exchange-correlation" >
    <i type="logical" name="LASPH"> F  </i>
    <i type="logical" name="LMETAGGA"> F  </i>
   </separator>
   <separator name="electronic convergence" >
    <i type="int" name="NELM">    60</i>
    <i type="int" name="NELMDL">    -5</i>
    <i type="int" name="NELMIN">     2</i>
    <i name="ENINI">    400.00000000</i>
    <separator name="electronic convergence detail" >
     <i type="logical" name="LDIAG"> T  </i>
     <i type="logical" name="LSUBROT"> F  </i>
     <i name="WEIMIN">      0.00100000</i>
     <i name="EBREAK">      0.00000000</i>
     <i name="DEPER">      0.30000000</i>
     <i type="int" name="NRMM">     4</i>
     <i name="TIME">      0.40000000</i>
    </separator>
   </separator>
   <separator name="electronic mixer" >
    <i name="AMIX">      0.40000000</i>
    <i name="BMIX">      1.00000000</i>
    <i name="AMIN">      0.10000000</i>
    <i name="AMIX_MAG">      1.60000000</i>
    <i name="BMIX_MAG">      1.00000000</i>
    <separator name="electronic mixer details" >
     <i type="int" name="IMIX">     4</i>
     <i type="logical" name="MIXFIRST"> F  </i>
     <i type="int" name="MAXMIX">   -45</i>
     <i name="WC">    100.00000000</i>
     <i type="int" name="INIMIX">     1</i>
     <i type="int" name="MIXPRE">     1</i>
     <i type="int" name="MREMOVE">     5</i>
    </separator>
   </separator>
   <separator name="electronic dipolcorrection" >
    <i type="logical" name="LDIPOL"> F  </i>
    <i type="logical" name="LMONO"> F  </i>
    <i type="int" name="IDIPOL">     0</i>
    <i name="EPSILON">      1.00000000</i>
    <v name="DIPOL">   -100.00000000   -100.00000000   -100.00000000</v>
    <i name="EFIELD">      0.00000000</i>
   </separator>
  </separator>
  <separator name="grids" >
   <i type="int" name="NGX">    70</i>
   <i type="int" name="NGY">    70</i>
   <i type="int" name="NGZ">    80</i>
   <i type="int" name="NGXF">   140</i>
   <i type="int" name="NGYF">   140</i>
   <i type="int" name="NGZF">   160</i>
   <i type="logical" name="ADDGRID"> F  </i>
  </separator>
  <separator name="ionic" >
   <i type="int" name="NSW">   500</i>
   <i type="int" name="IBRION">     2</i>
   <i type="int" name="ISIF">     2</i>
   <i name="PSTRESS">      0.00000000</i>
   <i name="EDIFFG">     -0.05000000</i>
   <i type="int" name="NFREE">     1</i>
   <i name="POTIM">      0.50000000</i>
   <i name="SMASS">     -3.00000000</i>
   <i name="SCALEE">      1.00000000</i>
  </separator>
  <separator name="ionic md" >
   <i name="TEBEG">      0.00010000</i>
   <i name="TEEND">      0.00010000</i>
   <i type="int" name="NBLOCK">     1</i>
   <i type="int" name="KBLOCK">   500</i>
   <i type="int" name="NPACO">   256</i>
   <i name="APACO">     16.00000000</i>
  </separator>
  <separator name="symmetry" >
   <i type="int" name="ISYM">     2</i>
   <i name="SYMPREC">      0.00001000</i>
  </separator>
  <separator name="dos" >
   <i type="logical" name="LORBIT"> F  </i>
   <v name="RWIGS">     -1.00000000     -1.00000000     -1.00000000     -1.00000000     -1.00000000</v>
   <i type="int" name="NEDOS">   301</i>
   <i name="EMIN">     10.00000000</i>
   <i name="EMAX">    -10.00000000</i>
   <i name="EFERMI">      0.00000000</i>
  </separator>
  <separator name="writing" >
   <i type="int" name="NWRITE">     2</i>
   <i type="logical" name="LWAVE"> F  </i>
   <i type="logical" name="LCHARG"> F  </i>
   <i type="logical" name="LPARD"> F  </i>
   <i type="logical" name="LVTOT"> F  </i>
   <i type="logical" name="LVHAR"> F  </i>
   <i type="logical" name="LELF"> F  </i>
   <i type="logical" name="LOPTICS"> F  </i>
   <v name="STM">      0.00000000      0.00000000      0.00000000      0.00000000      0.00000000      0.00000000      0.00000000</v>
  </separator>
  <separator name="performance" >
   <i type="int" name="NPAR">     8</i>
   <i type="int" name="NSIM">     4</i>
   <i type="int" name="NBLK">    -1</i>
   <i type="logical" name="LPLANE"> T  </i>
   <i type="logical" name="LSCALAPACK"> F  </i>
   <i type="logical" name="LSCAAWARE"> F  </i>
   <i type="logical" name="LSCALU"> F  </i>
   <i type="logical" name="LASYNC"> F  </i>
   <i type="logical" name="LORBITALREAL"> F  </i>
  </separator>
  <separator name="miscellaneous" >
   <i type="int" name="IDIOT">     3</i>
   <i type="logical" name="LMUSIC"> F  </i>
   <v name="POMASS">     26.98100000     12.01100000      1.00000000     16.00000000     28.08500000</v>
   <v name="DARWINR">      0.00000000      0.00000000      0.00000000      0.00000000      0.00000000</v>
   <v name="DARWINV">      1.00000000      1.00000000      1.00000000      1.00000000      1.00000000</v>
   <i type="logical" name="LCORR"> T  </i>
  </separator>
  <i type="logical" name="GGA_COMPAT"> T  </i>
  <i type="logical" name="LBERRY"> F  </i>
  <i type="int" name="ICORELEVEL">     0</i>
  <i type="logical" name="LDAU"> F  </i>
  <i type="int" name="I_CONSTRAINED_M">     0</i>
  <separator name="electronic exchange-correlation" >
   <i type="string" name="GGA">--</i>
   <i type="int" name="VOSKOWN">     0</i>
   <i type="logical" name="LHFCALC"> F  </i>
   <i type="string" name="PRECFOCK"></i>
   <i type="logical" name="LSYMGRAD"> F  </i>
   <i type="logical" name="LHFONE"> F  </i>
   <i type="logical" name="LRHFCALC"> F  </i>
   <i type="logical" name="LTHOMAS"> F  </i>
   <i type="logical" name="LMODELHF"> F  </i>
   <i name="ENCUT4O">     -1.00000000</i>
   <i type="int" name="EXXOEP">     0</i>
   <i type="int" name="FOURORBIT">     0</i>
   <i name="AEXX">      0.00000000</i>
   <i name="HFALPHA">      0.00000000</i>
   <i name="MCALPHA">      0.00000000</i>
   <i name="ALDAX">      1.00000000</i>
   <i name="AGGAX">      1.00000000</i>
   <i name="ALDAC">      1.00000000</i>
   <i name="AGGAC">      1.00000000</i>
   <i type="int" name="NKREDX">     1</i>
   <i type="int" name="NKREDY">     1</i>
   <i type="int" name="NKREDZ">     1</i>
   <i type="logical" name="SHIFTRED"> F  </i>
   <i type="logical" name="ODDONLY"> F  </i>
   <i type="logical" name="EVENONLY"> F  </i>
   <i type="int" name="LMAXFOCK">     0</i>
   <i type="int" name="NMAXFOCKAE">     0</i>
   <i type="logical" name="LFOCKAEDFT"> F  </i>
   <i name="HFSCREEN">      0.00000000</i>
   <i name="HFSCREENC">      0.00000000</i>
   <i type="int" name="NBANDSGWLOW">     0</i>
  </separator>
  <separator name="vdW DFT" >
   <i type="logical" name="LUSE_VDW"> F  </i>
   <i name="Zab_VDW">     -0.84910000</i>
   <i name="PARAM1">      0.12340000</i>
   <i name="PARAM2">      1.00000000</i>
   <i name="PARAM3">      0.00000000</i>
  </separator>
  <separator name="model GW" >
   <i type="int" name="MODEL_GW">     0</i>
   <i name="MODEL_EPS0">     13.02047138</i>
   <i name="MODEL_ALPHA">      1.00000000</i>
  </separator>
  <separator name="linear response parameters" >
   <i type="logical" name="LEPSILON"> F  </i>
   <i type="logical" name="LRPA"> F  </i>
   <i type="logical" name="LNABLA"> F  </i>
   <i type="logical" name="LVEL"> F  </i>
   <i type="int" name="KINTER">     0</i>
   <i name="CSHIFT">      0.10000000</i>
   <i name="OMEGAMAX">     -1.00000000</i>
   <i name="DEG_THRESHOLD">      0.00200000</i>
  </separator>
  <separator name="orbital magnetization" >
   <i type="logical" name="NUCIND"> F  </i>
   <v name="MAGPOS">      0.00000000      0.00000000      0.00000000</v>
   <i type="logical" name="LNICSALL"> T  </i>
   <i type="logical" name="ORBITALMAG"> F  </i>
   <i type="logical" name="LMAGBLOCH"> F  </i>
   <i type="logical" name="LCHIMAG"> F  </i>
   <i type="logical" name="LGAUGE"> T  </i>
   <i type="int" name="MAGATOM">     0</i>
   <v name="MAGDIPOL">      0.00000000      0.00000000      0.00000000</v>
   <v name="AVECCONST">      0.00000000      0.00000000      0.00000000</v>
  </separator>
  <separator name="response functions" >
   <i type="logical" name="LADDER"> F  </i>
   <i type="logical" name="LFXC"> F  </i>
   <i type="logical" name="LHARTREE"> T  </i>
   <i type="int" name="IBSE">     0</i>
   <v type="int" name="KPOINT">    -1     0     0     0</v>
   <i type="logical" name="LTCTE"> F  </i>
   <i type="logical" name="LTETE"> F  </i>
   <i type="logical" name="LTRIPLET"> F  </i>
   <i type="logical" name="LFXCEPS"> F  </i>
   <i type="logical" name="LFXHEG"> F  </i>
   <i type="int" name="NATURALO">     0</i>
   <i type="logical" name="L2ORDER"> F  </i>
   <i type="logical" name="LUSEW"> F  </i>
   <i name="ENCUTGW">     -2.00000000</i>
   <i name="ENCUTGWSOFT">     -2.00000000</i>
   <i name="ENCUTLF">     -1.00000000</i>
   <i type="int" name="LMAXMP2">    -1</i>
   <i name="SCISSOR">      0.00000000</i>
   <i type="int" name="NOMEGA">     0</i>
   <i type="int" name="NOMEGAR">     0</i>
   <i type="int" name="NBANDSGW">    -1</i>
   <i type="int" name="NBANDSO">    -1</i>
   <i type="int" name="NBANDSV">    -1</i>
   <i type="int" name="NELM">     1</i>
   <i type="int" name="NELMHF">     1</i>
   <i type="int" name="DIM">     3</i>
   <i type="int" name="ANTIRES">     0</i>
   <i name="OMEGAMAX">    -30.00000000</i>
   <i name="OMEGAMIN">    -30.00000000</i>
   <i name="OMEGATL">   -200.00000000</i>
   <i type="int" name="OMEGAGRID">     0</i>
   <i name="CSHIFT">     -0.10000000</i>
   <i type="logical" name="SELFENERGY"> F  </i>
   <i type="logical" name="LSPECTRAL"> F  </i>
   <i type="logical" name="LSPECTRALGW"> F  </i>
   <i type="logical" name="LSINGLES"> F  </i>
   <i type="logical" name="LFERMIGW"> F  </i>
   <i type="logical" name="ODDONLYGW"> F  </i>
   <i type="logical" name="EVENONLYGW"> F  </i>
   <i type="int" name="NKREDLFX">     1</i>
   <i type="int" name="NKREDLFY">     1</i>
   <i type="int" name="NKREDLFZ">     1</i>
   <i type="int" name="MAXMEM">  1800</i>
   <i type="int" name="TELESCOPE">     0</i>
   <i type="int" name="TAUPAR">     1</i>
   <i type="int" name="OMEGAPAR">    -1</i>
   <i name="LAMBDA">      1.00000000</i>
  </separator>
  <separator name="External order field" >
   <i name="OFIELD_KAPPA">      0.00000000</i>
   <v name="OFIELD_K">      0.00000000      0.00000000      0.00000000</v>
   <i name="OFIELD_Q6_NEAR">      0.00000000</i>
   <i name="OFIELD_Q6_FAR">      0.00000000</i>
   <i name="OFIELD_A">      0.00000000</i>
  </separator>
 </parameters>
 <atominfo>
  <atoms>     112 </atoms>
  <types>       5 </types>
  <array name="atoms" >
   <dimension dim="1">ion</dimension>
   <field type="string">element</field>
   <field type="int">atomtype</field>
   <set>
    <rc><c>Al</c><c>   1</c></rc>
    <rc><c>C </c><c>   2</c></rc>
    <rc><c>H </c><c>   3</c></rc>
    <rc><c>H </c><c>   3</c></rc>
    <rc><c>H </c><c>   3</c></rc>
    <rc><c>O </c><c>   4</c></rc>
    <rc><c>O </c><c>   4</c></rc>
    <rc><c>O </c><c>   4</c></rc>
    <rc><c>O </c><c>   4</c></rc>
    <rc><c>O </c><c>   4</c></rc>
    <rc><c>O </c><c>   4</c></rc>
    <rc><c>O </c><c>   4</c></rc>
    <rc><c>O </c><c>   4</c></rc>
    <rc><c>O </c><c>   4</c></rc>
    <rc><c>O </c><c>   4</c></rc>
    <rc><c>O </c><c>   4</c></rc>
    <rc><c>O </c><c>   4</c></rc>
    <rc><c>O </c><c>   4</c></rc>
    <rc><c>O </c><c>   4</c></rc>
    <rc><c>O </c><c>   4</c></rc>
    <rc><c>O </c><c>   4</c></rc>
    <rc><c>O </c><c>   4</c></rc>
    <rc><c>O </c><c>   4</c></rc>
    <rc><c>O </c><c>   4</c></rc>
    <rc><c>O </c><c>   4</c></rc>
    <rc><c>O </c><c>   4</c></rc>
    <rc><c>O </c><c>   4</c></rc>
    <rc><c>O </c><c>   4</c></rc>
    <rc><c>O </c><c>   4</c></rc>
    <rc><c>O </c><c>   4</c></rc>
    <rc><c>O </c><c>   4</c></rc>
    <rc><c>O </c><c>   4</c></rc>
    <rc><c>O </c><c>   4</c></rc>
    <rc><c>O </c><c>   4</c></rc>
    <rc><c>O </c><c>   4</c></rc>
    <rc><c>O </c><c>   4</c></rc>
    <rc><c>O </c><c>   4</c></rc>
    <rc><c>O </c><c>   4</c></rc>
    <rc><c>O </c><c>   4</c></rc>
    <rc><c>O </c><c>   4</c></rc>
    <rc><c>O </c><c>   4</c></rc>
    <rc><c>O </c><c>   4</c></rc>
    <rc><c>O </c><c>   4</c></rc>
    <rc><c>O </c><c>   4</c></rc>
    <rc><c>O </c><c>   4</c></rc>
    <rc><c>O </c><c>   4</c></rc>
    <rc><c>O </c><c>   4</c></rc>
    <rc><c>O </c><c>   4</c></rc>
    <rc><c>O </c><c>   4</c></rc>
    <rc><c>O </c><c>   4</c></rc>
    <rc><c>O </c><c>   4</c></rc>
    <rc><c>O </c><c>   4</c></rc>
    <rc><c>O </c><c>   4</c></rc>
    <rc><c>O </c><c>   4</c></rc>
    <rc><c>O </c><c>   4</c></rc>
    <rc><c>O </c><c>   4</c></rc>
    <rc><c>O </c><c>   4</c></rc>
    <rc><c>O </c><c>   4</c></rc>
    <rc><c>O </c><c>   4</c></rc>
    <rc><c>O </c><c>   4</c></rc>
    <rc><c>O </c><c>   4</c></rc>
    <rc><c>O </c><c>   4</c></rc>
    <rc><c>O </c><c>   4</c></rc>
    <rc><c>O </c><c>   4</c></rc>
    <rc><c>O </c><c>   4</c></rc>
    <rc><c>O </c><c>   4</c></rc>
    <rc><c>O </c><c>   4</c></rc>
    <rc><c>O </c><c>   4</c></rc>
    <rc><c>O </c><c>   4</c></rc>
    <rc><c>O </c><c>   4</c></rc>
    <rc><c>O </c><c>   4</c></rc>
    <rc><c>O </c><c>   4</c></rc>
    <rc><c>O </c><c>   4</c></rc>
    <rc><c>O </c><c>   4</c></rc>
    <rc><c>O </c><c>   4</c></rc>
    <rc><c>O </c><c>   4</c></rc>
    <rc><c>O </c><c>   4</c></rc>
    <rc><c>Si</c><c>   5</c></rc>
    <rc><c>Si</c><c>   5</c></rc>
    <rc><c>Si</c><c>   5</c></rc>
    <rc><c>Si</c><c>   5</c></rc>
    <rc><c>Si</c><c>   5</c></rc>
    <rc><c>Si</c><c>   5</c></rc>
    <rc><c>Si</c><c>   5</c></rc>
    <rc><c>Si</c><c>   5</c></rc>
    <rc><c>Si</c><c>   5</c></rc>
    <rc><c>Si</c><c>   5</c></rc>
    <rc><c>Si</c><c>   5</c></rc>
    <rc><c>Si</c><c>   5</c></rc>
    <rc><c>Si</c><c>   5</c></rc>
    <rc><c>Si</c><c>   5</c></rc>
    <rc><c>Si</c><c>   5</c></rc>
    <rc><c>Si</c><c>   5</c></rc>
    <rc><c>Si</c><c>   5</c></rc>
    <rc><c>Si</c><c>   5</c></rc>
    <rc><c>Si</c><c>   5</c></rc>
    <rc><c>Si</c><c>   5</c></rc>
    <rc><c>Si</c><c>   5</c></rc>
    <rc><c>Si</c><c>   5</c></rc>
    <rc><c>Si</c><c>   5</c></rc>
    <rc><c>Si</c><c>   5</c></rc>
    <rc><c>Si</c><c>   5</c></rc>
    <rc><c>Si</c><c>   5</c></rc>
    <rc><c>Si</c><c>   5</c></rc>
    <rc><c>Si</c><c>   5</c></rc>
    <rc><c>Si</c><c>   5</c></rc>
    <rc><c>Si</c><c>   5</c></rc>
    <rc><c>Si</c><c>   5</c></rc>
    <rc><c>Si</c><c>   5</c></rc>
    <rc><c>Si</c><c>   5</c></rc>
    <rc><c>Si</c><c>   5</c></rc>
    <rc><c>Si</c><c>   5</c></rc>
   </set>
  </array>
  <array name="atomtypes" >
   <dimension dim="1">type</dimension>
   <field type="int">atomspertype</field>
   <field type="string">element</field>
   <field>mass</field>
   <field>valence</field>
   <field type="string">pseudopotential</field>
   <set>
    <rc><c>   1</c><c>Al</c><c>     26.98100000</c><c>      3.00000000</c><c>  PAW_PBE Al 04Jan2001                  </c></rc>
    <rc><c>   1</c><c>C </c><c>     12.01100000</c><c>      4.00000000</c><c>  PAW_PBE C 08Apr2002                   </c></rc>
    <rc><c>   3</c><c>H </c><c>      1.00000000</c><c>      1.00000000</c><c>  PAW_PBE H 15Jun2001                   </c></rc>
    <rc><c>  72</c><c>O </c><c>     16.00000000</c><c>      6.00000000</c><c>  PAW_PBE O 08Apr2002                   </c></rc>
    <rc><c>  35</c><c>Si</c><c>     28.08500000</c><c>      4.00000000</c><c>  PAW_PBE Si 05Jan2001                  </c></rc>
   </set>
  </array>
 </atominfo>
 <structure name="initialpos" >
  <crystal>
   <varray name="basis" >
    <v>      13.72957181      -0.00462456      -0.00141144 </v>
    <v>      -6.86873914      11.89091482       0.00181973 </v>
    <v>      -0.00151065       0.00130727      14.89037843 </v>
   </varray>
   <i name="volume">   2430.48799023 </i>
   <varray name="rec_basis" >
    <v>       0.07284966       0.04208131       0.00000370 </v>
    <v>       0.00002833       0.08411419      -0.00000738 </v>
    <v>       0.00000690      -0.00000629       0.06715746 </v>
   </varray>
  </crystal>
  <varray name="positions" >
   <v>       0.56226675       0.66695774       0.56210364 </v>
   <v>       0.61453287       0.79811990       0.44065146 </v>
   <v>       0.65991378       0.88882947       0.44064467 </v>
   <v>       0.65987890       0.75279157       0.44066129 </v>
   <v>       0.52380594       0.75273865       0.44064840 </v>
   <v>       0.01866908       0.33415778       0.83400028 </v>
   <v>       0.21409633       0.42707628       0.53524471 </v>
   <v>       0.54684068       0.09367858       0.20255533 </v>
   <v>       0.88033373       0.76060205       0.86690236 </v>
   <v>       0.45307532       0.54735605       0.79899071 </v>
   <v>       0.12054702       0.87953215       0.13137146 </v>
   <v>       0.09356834       0.54704988       0.79753904 </v>
   <v>       0.42908437       0.21450775       0.46642178 </v>
   <v>       0.76014491       0.88009731       0.13310068 </v>
   <v>       0.21378515       0.78703006       0.53379068 </v>
   <v>       0.90028721       0.09915112       0.12387986 </v>
   <v>       0.23937203       0.11999702       0.86781467 </v>
   <v>       0.86357454       0.43151607       0.45676915 </v>
   <v>       0.43242939       0.86426723       0.54370028 </v>
   <v>       0.98229452       0.31530457       0.16694177 </v>
   <v>       0.64817130       0.99953414       0.49955176 </v>
   <v>       0.00043896       0.64720847       0.49975529 </v>
   <v>       0.33298125       0.31452668       0.16704582 </v>
   <v>       0.98098642       0.66644197       0.16658376 </v>
   <v>       0.35239198       0.35174152       0.50050091 </v>
   <v>       0.68385168       0.01788778       0.16566335 </v>
   <v>       0.66669377       0.98186541       0.83352303 </v>
   <v>       0.00116992       0.35335410       0.49925248 </v>
   <v>       0.78762049       0.21296121       0.46562061 </v>
   <v>       0.33373752       0.01849548       0.16668310 </v>
   <v>       0.90604538       0.45293233       0.20052744 </v>
   <v>       0.31495955       0.33394208       0.83414386 </v>
   <v>       0.45343721       0.90696615       0.79859222 </v>
   <v>       0.07328832       0.66873069       0.66657635 </v>
   <v>       0.66878397       0.07248771       0.33291341 </v>
   <v>       0.99839898       0.73872197       0.99995682 </v>
   <v>       0.59484588       0.92882677       0.66664679 </v>
   <v>       0.92775304       0.59328347       0.33317011 </v>
   <v>       0.26044392       0.26022676       0.00041043 </v>
   <v>       0.40496547       0.33173231       0.33375974 </v>
   <v>       0.78717796       0.57370545       0.46504080 </v>
   <v>       0.73962094       0.99881333       0.99981828 </v>
   <v>       0.57346146       0.78656886       0.53553586 </v>
   <v>       0.59502641       0.66649762       0.66714202 </v>
   <v>       0.26173374       0.00093142       0.99988745 </v>
   <v>       0.07171686       0.40445488       0.66663892 </v>
   <v>       0.40502615       0.07341303       0.33357486 </v>
   <v>       0.33388493       0.40556150       0.66715660 </v>
   <v>       0.74130148       0.74157771       0.99990420 </v>
   <v>       0.54626077       0.45356368       0.20249386 </v>
   <v>       0.88005958       0.12063688       0.86801315 </v>
   <v>       0.33290645       0.92704622       0.66660571 </v>
   <v>       0.56813333       0.43345568       0.45573462 </v>
   <v>       0.66787315       0.59620520       0.33318521 </v>
   <v>       0.92707692       0.33365692       0.33309150 </v>
   <v>       0.35337550       0.00075342       0.50030064 </v>
   <v>       0.31507762       0.98219159       0.83302738 </v>
   <v>       0.90175571       0.80301538       0.12424376 </v>
   <v>       0.23451294       0.76604255       0.79065746 </v>
   <v>       0.11938162       0.23874371       0.13244245 </v>
   <v>       0.56886513       0.13557705       0.45505081 </v>
   <v>       0.23426633       0.46883248       0.78952332 </v>
   <v>       0.19789636       0.09842721       0.12373094 </v>
   <v>       0.00001922       0.26079870       0.00040007 </v>
   <v>       0.09929620       0.90094046       0.87711490 </v>
   <v>       0.80289743       0.90184265       0.87522089 </v>
   <v>       0.43312280       0.56754296       0.54387454 </v>
   <v>       0.53149813       0.76617893       0.78927568 </v>
   <v>       0.76513887       0.53069600       0.21050735 </v>
   <v>       0.13681379       0.56845723       0.54503361 </v>
   <v>       0.46898042       0.23467224       0.20963910 </v>
   <v>       0.64913284       0.64895484       0.50026552 </v>
   <v>       0.76597739       0.23394914       0.20912494 </v>
   <v>       0.66631742       0.68549264       0.83419044 </v>
   <v>       0.01850874       0.68504333       0.83354036 </v>
   <v>       0.09893653       0.19841567       0.87681325 </v>
   <v>       0.68535530       0.66617265       0.16567902 </v>
   <v>       0.56160226       0.89548670       0.77161425 </v>
   <v>       0.99963954       0.77178059       0.89479173 </v>
   <v>       0.89488496       0.33352588       0.22786143 </v>
   <v>       0.77144754       0.99942864       0.10518678 </v>
   <v>       0.10592703       0.43874517       0.56189606 </v>
   <v>       0.33357859       0.43886748       0.77206256 </v>
   <v>       0.00004570       0.77197853       0.10511512 </v>
   <v>       0.33358113       0.89516793       0.77182313 </v>
   <v>       0.22843925       0.99974974       0.10499738 </v>
   <v>       0.22769218       0.22754836       0.10550695 </v>
   <v>       0.10497779       0.43863490       0.77151563 </v>
   <v>       0.66790209       0.10513258       0.43790817 </v>
   <v>       0.00006699       0.22803651       0.10547304 </v>
   <v>       0.89486199       0.33327201       0.43832718 </v>
   <v>       0.33354587       0.89477868       0.56149855 </v>
   <v>       0.89471565       0.56103274       0.43828992 </v>
   <v>       0.10537040       0.66709381       0.77164668 </v>
   <v>       0.33375432       0.43838063       0.56208668 </v>
   <v>       0.89452606       0.56088599       0.22808763 </v>
   <v>       0.77256536       0.77270690       0.10534218 </v>
   <v>       0.66765425       0.56266940       0.43814029 </v>
   <v>       0.43903444       0.33331600       0.43871159 </v>
   <v>       0.10601279       0.66735158       0.56164940 </v>
   <v>       0.22845574       0.00058940       0.89487405 </v>
   <v>       0.66657228       0.56165633       0.22836123 </v>
   <v>       0.56149853       0.66686609       0.77198996 </v>
   <v>       0.99987949       0.22851408       0.89520799 </v>
   <v>       0.77276445       0.77281234       0.89450369 </v>
   <v>       0.66676104       0.10493668       0.22800227 </v>
   <v>       0.22801816       0.22811264       0.89521057 </v>
   <v>       0.43835039       0.33325187       0.22863568 </v>
   <v>       0.77236684       0.00040877       0.89457899 </v>
   <v>       0.56181870       0.89478902       0.56175798 </v>
   <v>       0.43865925       0.10549905       0.22850692 </v>
   <v>       0.43951841       0.10602589       0.43844766 </v>
  </varray>
 </structure>
 <calculation>
  <scstep>
   <time name="dav">    2.23    2.25</time>
   <time name="total">    2.50    2.54</time>
   <energy>
    <i name="alphaZ">    476.21782353 </i>
    <i name="ewald">  -2343.95147182 </i>
    <i name="hartreedc"> -28801.53527401 </i>
    <i name="XCdc">   1691.84403874 </i>
    <i name="pawpsdc">  28217.01960844 </i>
    <i name="pawaedc"> -27699.40053531 </i>
    <i name="eentropy">     -0.13415720 </i>
    <i name="bandstr">  -2062.95209540 </i>
    <i name="atom">  34968.35250874 </i>
    <i name="e_fr_energy">   4445.46044572 </i>
    <i name="e_wo_entrp">   4445.59460291 </i>
    <i name="e_0_energy">   4445.52752431 </i>
   </energy>
  </scstep>
  <scstep>
   <time name="dav">    2.57    2.58</time>
   <time name="total">    2.57    2.59</time>
   <energy>
    <i name="e_fr_energy">   -416.04097246 </i>
    <i name="e_wo_entrp">   -416.04097246 </i>
    <i name="e_0_energy">   -416.04097246 </i>
   </energy>
  </scstep>
  <scstep>
   <time name="dav">    2.25    2.26</time>
   <time name="total">    2.25    2.27</time>
   <energy>
    <i name="e_fr_energy">   -973.22577280 </i>
    <i name="e_wo_entrp">   -973.22577280 </i>
    <i name="e_0_energy">   -973.22577280 </i>
   </energy>
  </scstep>
  <scstep>
   <time name="dav">    2.22    2.23</time>
   <time name="total">    2.22    2.24</time>
   <energy>
    <i name="e_fr_energy">   -986.18665629 </i>
    <i name="e_wo_entrp">   -986.18665629 </i>
    <i name="e_0_energy">   -986.18665629 </i>
   </energy>
  </scstep>
  <scstep>
   <time name="dav">    2.21    2.22</time>
   <time name="total">    2.27    2.29</time>
   <energy>
    <i name="e_fr_energy">   -986.59114481 </i>
    <i name="e_wo_entrp">   -986.59114481 </i>
    <i name="e_0_energy">   -986.59114481 </i>
   </energy>
  </scstep>
  <scstep>
   <time name="dav">    2.14    2.15</time>
   <time name="total">    2.26    2.27</time>
   <energy>
    <i name="e_fr_energy">   -869.76747517 </i>
    <i name="e_wo_entrp">   -869.76747517 </i>
    <i name="e_0_energy">   -869.76747517 </i>
   </energy>
  </scstep>
  <scstep>
   <time name="dav">    2.40    2.42</time>
   <time name="total">    2.52    2.54</time>
   <energy>
    <i name="e_fr_energy">   -869.12373559 </i>
    <i name="e_wo_entrp">   -869.12373559 </i>
    <i name="e_0_energy">   -869.12373559 </i>
   </energy>
  </scstep>
  <scstep>
   <time name="dav">    2.20    2.21</time>
   <time name="total">    2.31    2.33</time>
   <energy>
    <i name="e_fr_energy">   -868.59531226 </i>
    <i name="e_wo_entrp">   -868.59531226 </i>
    <i name="e_0_energy">   -868.59531226 </i>
   </energy>
  </scstep>
  <scstep>
   <time name="dav">    2.22    2.23</time>
   <time name="total">    2.33    2.34</time>
   <energy>
    <i name="e_fr_energy">   -868.42584731 </i>
    <i name="e_wo_entrp">   -868.42584731 </i>
    <i name="e_0_energy">   -868.42584731 </i>
   </energy>
  </scstep>
  <scstep>
   <time name="dav">    2.16    2.17</time>
   <time name="total">    2.27    2.28</time>
   <energy>
    <i name="e_fr_energy">   -868.42533631 </i>
    <i name="e_wo_entrp">   -868.42533631 </i>
    <i name="e_0_energy">   -868.42533631 </i>
   </energy>
  </scstep>
  <scstep>
   <time name="dav">    2.11    2.12</time>
   <time name="total">    2.22    2.24</time>
   <energy>
    <i name="e_fr_energy">   -868.42502744 </i>
    <i name="e_wo_entrp">   -868.42502744 </i>
    <i name="e_0_energy">   -868.42502744 </i>
   </energy>
  </scstep>
  <scstep>
   <time name="dav">    2.08    2.09</time>
   <time name="total">    2.19    2.20</time>
   <energy>
    <i name="e_fr_energy">   -868.43055364 </i>
    <i name="e_wo_entrp">   -868.43055364 </i>
    <i name="e_0_energy">   -868.43055364 </i>
   </energy>
  </scstep>
  <scstep>
   <time name="dav">    2.27    2.28</time>
   <time name="total">    2.38    2.39</time>
   <energy>
    <i name="e_fr_energy">   -868.44208258 </i>
    <i name="e_wo_entrp">   -868.44208258 </i>
    <i name="e_0_energy">   -868.44208258 </i>
   </energy>
  </scstep>
  <scstep>
   <time name="dav">    2.09    2.10</time>
   <time name="total">    2.20    2.21</time>
   <energy>
    <i name="e_fr_energy">   -868.45029438 </i>
    <i name="e_wo_entrp">   -868.45029438 </i>
    <i name="e_0_energy">   -868.45029438 </i>
   </energy>
  </scstep>
  <scstep>
   <time name="dav">    2.26    2.27</time>
   <time name="total">    2.37    2.39</time>
   <energy>
    <i name="e_fr_energy">   -868.45330622 </i>
    <i name="e_wo_entrp">   -868.45330622 </i>
    <i name="e_0_energy">   -868.45330622 </i>
   </energy>
  </scstep>
  <scstep>
   <time name="dav">    2.32    2.34</time>
   <time name="total">    2.43    2.45</time>
   <energy>
    <i name="e_fr_energy">   -868.45493665 </i>
    <i name="e_wo_entrp">   -868.45493665 </i>
    <i name="e_0_energy">   -868.45493665 </i>
   </energy>
  </scstep>
  <scstep>
   <time name="dav">    2.13    2.14</time>
   <time name="total">    2.24    2.26</time>
   <energy>
    <i name="e_fr_energy">   -868.45528076 </i>
    <i name="e_wo_entrp">   -868.45528076 </i>
    <i name="e_0_energy">   -868.45528076 </i>
   </energy>
  </scstep>
  <scstep>
   <time name="dav">    2.09    2.10</time>
   <time name="total">    2.20    2.22</time>
   <energy>
    <i name="e_fr_energy">   -868.45556973 </i>
    <i name="e_wo_entrp">   -868.45556973 </i>
    <i name="e_0_energy">   -868.45556973 </i>
   </energy>
  </scstep>
  <scstep>
   <time name="dav">    2.12    2.13</time>
   <time name="total">    2.23    2.24</time>
   <energy>
    <i name="e_fr_energy">   -868.45569457 </i>
    <i name="e_wo_entrp">   -868.45569457 </i>
    <i name="e_0_energy">   -868.45569457 </i>
   </energy>
  </scstep>
  <scstep>
   <time name="dav">    2.22    2.24</time>
   <time name="total">    2.33    2.35</time>
   <energy>
    <i name="e_fr_energy">   -868.45570658 </i>
    <i name="e_wo_entrp">   -868.45570658 </i>
    <i name="e_0_energy">   -868.45570658 </i>
   </energy>
  </scstep>
  <scstep>
   <time name="dav">    1.55    1.56</time>
   <time name="total">    1.66    1.67</time>
   <energy>
    <i name="e_fr_energy">   -868.45571553 </i>
    <i name="e_wo_entrp">   -868.45571553 </i>
    <i name="e_0_energy">   -868.45571553 </i>
   </energy>
  </scstep>
  <scstep>
   <time name="dav">    1.54    1.55</time>
   <time name="total">    1.70    1.71</time>
   <energy>
    <i name="e_fr_energy">   -868.45571957 </i>
    <i name="e_wo_entrp">   -868.45571957 </i>
    <i name="e_0_energy">   -868.45571957 </i>
   </energy>
  </scstep>
  <scstep>
   <time name="dav">    1.53    1.54</time>
   <time name="total">    1.64    1.66</time>
   <energy>
    <i name="e_fr_energy">   -868.45572159 </i>
    <i name="e_wo_entrp">   -868.45572159 </i>
    <i name="e_0_energy">   -868.45572159 </i>
   </energy>
  </scstep>
  <scstep>
   <time name="dav">    1.57    1.58</time>
   <time name="total">    1.62    1.63</time>
   <energy>
    <i name="alphaZ">    476.21782353 </i>
    <i name="ewald">  -2343.95147182 </i>
    <i name="hartreedc"> -30703.66029440 </i>
    <i name="XCdc">   1803.71266872 </i>
    <i name="pawpsdc">  91598.70817932 </i>
    <i name="pawaedc"> -91106.47510992 </i>
    <i name="eentropy">     -0.00000000 </i>
    <i name="bandstr">  -5561.36002603 </i>
    <i name="atom">  34968.35250874 </i>
    <i name="e_fr_energy">   -868.45572186 </i>
    <i name="e_wo_entrp">   -868.45572186 </i>
    <i name="e_0_energy">   -868.45572186 </i>
   </energy>
  </scstep>
  <structure>
   <crystal>
    <varray name="basis" >
     <v>      13.72957181      -0.00462456      -0.00141144 </v>
     <v>      -6.86873914      11.89091482       0.00181973 </v>
     <v>      -0.00151065       0.00130727      14.89037843 </v>
    </varray>
    <i name="volume">   2430.48799023 </i>
    <varray name="rec_basis" >
     <v>       0.07284966       0.04208131       0.00000370 </v>
     <v>       0.00002833       0.08411419      -0.00000738 </v>
     <v>       0.00000690      -0.00000629       0.06715746 </v>
    </varray>
   </crystal>
   <varray name="positions" >
    <v>       0.56226675       0.66695774       0.56210364 </v>
    <v>       0.61453287       0.79811990       0.44065146 </v>
    <v>       0.65991378       0.88882947       0.44064467 </v>
    <v>       0.65987890       0.75279157       0.44066129 </v>
    <v>       0.52380594       0.75273865       0.44064840 </v>
    <v>       0.01866908       0.33415778       0.83400028 </v>
    <v>       0.21409633       0.42707628       0.53524471 </v>
    <v>       0.54684068       0.09367858       0.20255533 </v>
    <v>       0.88033373       0.76060205       0.86690236 </v>
    <v>       0.45307532       0.54735605       0.79899071 </v>
    <v>       0.12054702       0.87953215       0.13137146 </v>
    <v>       0.09356834       0.54704988       0.79753904 </v>
    <v>       0.42908437       0.21450775       0.46642178 </v>
    <v>       0.76014491       0.88009731       0.13310068 </v>
    <v>       0.21378515       0.78703006       0.53379068 </v>
    <v>       0.90028721       0.09915112       0.12387986 </v>
    <v>       0.23937203       0.11999702       0.86781467 </v>
    <v>       0.86357454       0.43151607       0.45676915 </v>
    <v>       0.43242939       0.86426723       0.54370028 </v>
    <v>       0.98229452       0.31530457       0.16694177 </v>
    <v>       0.64817130       0.99953414       0.49955176 </v>
    <v>       0.00043896       0.64720847       0.49975529 </v>
    <v>       0.33298125       0.31452668       0.16704582 </v>
    <v>       0.98098642       0.66644197       0.16658376 </v>
    <v>       0.35239198       0.35174152       0.50050091 </v>
    <v>       0.68385168       0.01788778       0.16566335 </v>
    <v>       0.66669377       0.98186541       0.83352303 </v>
    <v>       0.00116992       0.35335410       0.49925248 </v>
    <v>       0.78762049       0.21296121       0.46562061 </v>
    <v>       0.33373752       0.01849548       0.16668310 </v>
    <v>       0.90604538       0.45293233       0.20052744 </v>
    <v>       0.31495955       0.33394208       0.83414386 </v>
    <v>       0.45343721       0.90696615       0.79859222 </v>
    <v>       0.07328832       0.66873069       0.66657635 </v>
    <v>       0.66878397       0.07248771       0.33291341 </v>
    <v>       0.99839898       0.73872197       0.99995682 </v>
    <v>       0.59484588       0.92882677       0.66664679 </v>
    <v>       0.92775304       0.59328347       0.33317011 </v>
    <v>       0.26044392       0.26022676       0.00041043 </v>
    <v>       0.40496547       0.33173231       0.33375974 </v>
    <v>       0.78717796       0.57370545       0.46504080 </v>
    <v>       0.73962094       0.99881333       0.99981828 </v>
    <v>       0.57346146       0.78656886       0.53553586 </v>
    <v>       0.59502641       0.66649762       0.66714202 </v>
    <v>       0.26173374       0.00093142       0.99988745 </v>
    <v>       0.07171686       0.40445488       0.66663892 </v>
    <v>       0.40502615       0.07341303       0.33357486 </v>
    <v>       0.33388493       0.40556150       0.66715660 </v>
    <v>       0.74130148       0.74157771       0.99990420 </v>
    <v>       0.54626077       0.45356368       0.20249386 </v>
    <v>       0.88005958       0.12063688       0.86801315 </v>
    <v>       0.33290645       0.92704622       0.66660571 </v>
    <v>       0.56813333       0.43345568       0.45573462 </v>
    <v>       0.66787315       0.59620520       0.33318521 </v>
    <v>       0.92707692       0.33365692       0.33309150 </v>
    <v>       0.35337550       0.00075342       0.50030064 </v>
    <v>       0.31507762       0.98219159       0.83302738 </v>
    <v>       0.90175571       0.80301538       0.12424376 </v>
    <v>       0.23451294       0.76604255       0.79065746 </v>
    <v>       0.11938162       0.23874371       0.13244245 </v>
    <v>       0.56886513       0.13557705       0.45505081 </v>
    <v>       0.23426633       0.46883248       0.78952332 </v>
    <v>       0.19789636       0.09842721       0.12373094 </v>
    <v>       0.00001922       0.26079870       0.00040007 </v>
    <v>       0.09929620       0.90094046       0.87711490 </v>
    <v>       0.80289743       0.90184265       0.87522089 </v>
    <v>       0.43312280       0.56754296       0.54387454 </v>
    <v>       0.53149813       0.76617893       0.78927568 </v>
    <v>       0.76513887       0.53069600       0.21050735 </v>
    <v>       0.13681379       0.56845723       0.54503361 </v>
    <v>       0.46898042       0.23467224       0.20963910 </v>
    <v>       0.64913284       0.64895484       0.50026552 </v>
    <v>       0.76597739       0.23394914       0.20912494 </v>
    <v>       0.66631742       0.68549264       0.83419044 </v>
    <v>       0.01850874       0.68504333       0.83354036 </v>
    <v>       0.09893653       0.19841567       0.87681325 </v>
    <v>       0.68535530       0.66617265       0.16567902 </v>
    <v>       0.56160226       0.89548670       0.77161425 </v>
    <v>       0.99963954       0.77178059       0.89479173 </v>
    <v>       0.89488496       0.33352588       0.22786143 </v>
    <v>       0.77144754       0.99942864       0.10518678 </v>
    <v>       0.10592703       0.43874517       0.56189606 </v>
    <v>       0.33357859       0.43886748       0.77206256 </v>
    <v>       0.00004570       0.77197853       0.10511512 </v>
    <v>       0.33358113       0.89516793       0.77182313 </v>
    <v>       0.22843925       0.99974974       0.10499738 </v>
    <v>       0.22769218       0.22754836       0.10550695 </v>
    <v>       0.10497779       0.43863490       0.77151563 </v>
    <v>       0.66790209       0.10513258       0.43790817 </v>
    <v>       0.00006699       0.22803651       0.10547304 </v>
    <v>       0.89486199       0.33327201       0.43832718 </v>
    <v>       0.33354587       0.89477868       0.56149855 </v>
    <v>       0.89471565       0.56103274       0.43828992 </v>
    <v>       0.10537040       0.66709381       0.77164668 </v>
    <v>       0.33375432       0.43838063       0.56208668 </v>
    <v>       0.89452606       0.56088599       0.22808763 </v>
    <v>       0.77256536       0.77270690       0.10534218 </v>
    <v>       0.66765425       0.56266940       0.43814029 </v>
    <v>       0.43903444       0.33331600       0.43871159 </v>
    <v>       0.10601279       0.66735158       0.56164940 </v>
    <v>       0.22845574       0.00058940       0.89487405 </v>
    <v>       0.66657228       0.56165633       0.22836123 </v>
    <v>       0.56149853       0.66686609       0.77198996 </v>
    <v>       0.99987949       0.22851408       0.89520799 </v>
    <v>       0.77276445       0.77281234       0.89450369 </v>
    <v>       0.66676104       0.10493668       0.22800227 </v>
    <v>       0.22801816       0.22811264       0.89521057 </v>
    <v>       0.43835039       0.33325187       0.22863568 </v>
    <v>       0.77236684       0.00040877       0.89457899 </v>
    <v>       0.56181870       0.89478902       0.56175798 </v>
    <v>       0.43865925       0.10549905       0.22850692 </v>
    <v>       0.43951841       0.10602589       0.43844766 </v>
   </varray>
  </structure>
  <varray name="forces" >
   <v>       1.13505915      -3.93966909       2.70895107 </v>
   <v>      -1.43630634       0.87855569      -0.45571424 </v>
   <v>       0.34108654       0.12654506      -1.90856106 </v>
   <v>       0.23532515       0.23294551      -0.97402552 </v>
   <v>      -0.59229068      -0.57329317      -5.06493898 </v>
   <v>      -0.04472434      -0.05821708       0.04218239 </v>
   <v>      -0.58812835      -0.22406318      -0.02856059 </v>
   <v>       0.11021400      -0.03349331       0.05423780 </v>
   <v>       0.11624496       0.03283553       0.04366358 </v>
   <v>      -0.22378891      -0.23480813       0.28752411 </v>
   <v>       0.01474109       0.01159692       0.02625496 </v>
   <v>      -0.05565921       0.06034996       0.01001444 </v>
   <v>       0.17805350      -0.28876277      -0.03070577 </v>
   <v>      -0.05228740       0.05502547       0.08327591 </v>
   <v>       0.17497187       0.17550577      -0.02908595 </v>
   <v>      -0.03074535      -0.04449795       0.03585744 </v>
   <v>       0.03988455      -0.07368189       0.01454333 </v>
   <v>       0.07134471      -0.14241938      -0.01700523 </v>
   <v>       0.82608956      -0.16094923      -0.17169295 </v>
   <v>      -0.03187526      -0.00272354       0.02927921 </v>
   <v>       0.00018691      -0.09641282       0.49504085 </v>
   <v>       0.06680734       0.05600052       0.00884781 </v>
   <v>      -0.00568096      -0.01526449      -0.01555100 </v>
   <v>       0.01134771       0.00143740       0.00481257 </v>
   <v>       0.17554105      -0.40212005      -0.21309484 </v>
   <v>      -0.05602007      -0.00625685       0.12252714 </v>
   <v>      -0.07868866       0.06405267      -0.11533903 </v>
   <v>      -0.17400269      -0.11826498      -0.10023268 </v>
   <v>      -0.10969455      -0.38097408       0.03273892 </v>
   <v>       0.05497794      -0.00025309       0.04097415 </v>
   <v>       0.02682002      -0.05647032       0.00046484 </v>
   <v>      -0.02271188      -0.18566855       0.14722072 </v>
   <v>       0.01817575       0.08033502      -0.11700266 </v>
   <v>       0.01429075       0.04077200      -0.05165630 </v>
   <v>       0.07377619      -0.18721276       0.31798022 </v>
   <v>       0.02076791       0.00122075       0.05848306 </v>
   <v>       0.08668791      -0.19583964      -0.90412246 </v>
   <v>       0.04975140       0.00790641      -0.06084852 </v>
   <v>      -0.00518426      -0.02371372       0.08216796 </v>
   <v>       0.01621841      -0.06193530      -0.16201119 </v>
   <v>       0.41705666      -0.06522875      -0.11890168 </v>
   <v>      -0.03928583       0.01453548       0.08383253 </v>
   <v>      -0.23648504       4.55746361       2.97767128 </v>
   <v>       0.35217036       0.48223504       4.04864441 </v>
   <v>       0.02581546      -0.00535857       0.03612782 </v>
   <v>      -0.09939850      -0.00785350       0.01082977 </v>
   <v>       0.07385697      -0.06041376       0.05872585 </v>
   <v>      -0.10483643      -0.24127073       0.26926991 </v>
   <v>       0.01652086       0.03909877       0.19119139 </v>
   <v>       0.00985857       0.00784911      -0.03253609 </v>
   <v>      -0.04160770      -0.01516573       0.00053160 </v>
   <v>       0.11788088       0.00445541      -0.21243615 </v>
   <v>       0.06705885      -0.24411195      -0.16053323 </v>
   <v>       0.00189167       0.08793184      -0.33877288 </v>
   <v>      -0.01710114      -0.06930939       0.01760811 </v>
   <v>       0.13689969      -0.12922977       0.04727304 </v>
   <v>       0.06222074      -0.01453762      -0.04905663 </v>
   <v>      -0.00472960       0.02312583       0.03634497 </v>
   <v>       0.04628928       0.08244143      -0.03464574 </v>
   <v>      -0.04390749      -0.00745807       0.02516838 </v>
   <v>       0.31892748      -0.16567989       0.06091603 </v>
   <v>      -0.21336386      -0.01886095       0.05760580 </v>
   <v>       0.00833405      -0.03494350       0.01648926 </v>
   <v>      -0.01743703      -0.00724069       0.06834066 </v>
   <v>       0.03371596       0.02548030       0.00955613 </v>
   <v>      -0.04204481       0.15520140       0.04647016 </v>
   <v>      -2.63641887      -2.80795307      -0.64609626 </v>
   <v>      -0.40452693       0.57860828       0.13684613 </v>
   <v>       0.03080597      -0.00659098      -0.02127255 </v>
   <v>      -0.08806130       0.12798368      -0.03013952 </v>
   <v>       0.07482870      -0.08764924      -0.00616935 </v>
   <v>       4.06834603      -1.64056310      -2.13992225 </v>
   <v>      -0.04870061      -0.11043060       0.06136744 </v>
   <v>       0.25557981       0.21329011       0.52416521 </v>
   <v>       0.02764424       0.00461551      -0.00295520 </v>
   <v>      -0.05444336      -0.03944539       0.03183497 </v>
   <v>      -0.02502694       0.05132689       0.02080442 </v>
   <v>       0.13773865      -0.57181625       0.71217264 </v>
   <v>      -0.10114629      -0.02592352      -0.05422869 </v>
   <v>       0.05809817       0.11666942      -0.03514651 </v>
   <v>       0.08505486      -0.00222571      -0.16406214 </v>
   <v>       0.47274540      -0.02956524       0.04069855 </v>
   <v>       0.28120618       0.26437638      -0.32006302 </v>
   <v>       0.00135366      -0.03075565      -0.05990327 </v>
   <v>      -0.07654129      -0.06687233       0.19034773 </v>
   <v>      -0.04433630       0.00762850      -0.05795406 </v>
   <v>       0.03886929       0.05873151      -0.06138543 </v>
   <v>       0.20191542       0.02000905      -0.04189775 </v>
   <v>      -0.35960427       0.95700243      -0.36968602 </v>
   <v>       0.05884594       0.05601335      -0.07018376 </v>
   <v>       0.12861325       0.35772000       0.05020311 </v>
   <v>      -0.66729309       0.04009487       0.14924644 </v>
   <v>      -0.27085306       0.02396816       0.06847029 </v>
   <v>      -0.03113716      -0.11097193       0.03895533 </v>
   <v>       0.45942348       1.41347152      -0.15700334 </v>
   <v>      -0.03798602       0.03451369       0.03870519 </v>
   <v>       0.04548435      -0.09966624      -0.18708200 </v>
   <v>      -0.41663997       0.29532154       0.94584009 </v>
   <v>      -0.21947272       0.40422334       0.28047751 </v>
   <v>      -0.07679776      -0.24693720       0.06177106 </v>
   <v>      -0.09007452       0.04472672      -0.00664907 </v>
   <v>      -0.00299527      -0.06041402       0.06730610 </v>
   <v>       0.65348901      -0.31540169      -1.54757344 </v>
   <v>       0.05903853       0.05551160      -0.07027521 </v>
   <v>      -0.21080030      -0.28995320      -0.28272585 </v>
   <v>      -0.06281717       0.12830691      -0.32973449 </v>
   <v>       0.03617311       0.16730758      -0.12797721 </v>
   <v>      -0.07277400       0.06366924       0.11383387 </v>
   <v>       0.13558063      -0.08009119      -0.03753874 </v>
   <v>      -2.01173058       2.08822157       2.08691929 </v>
   <v>      -0.13725164       0.07840349      -0.07748745 </v>
   <v>      -0.34228080       0.26023649      -0.05746097 </v>
  </varray>
  <varray name="stress" >
   <v>     -19.34433478      -3.45162656       1.18785722 </v>
   <v>      -3.45162662     -16.75302013      -1.50499612 </v>
   <v>       1.18785720      -1.50499613     -14.40070265 </v>
  </varray>
  <energy>
   <i name="e_fr_energy">   -868.45572186 </i>
   <i name="e_wo_entrp">   -868.45572186 </i>
   <i name="e_0_energy">     -0.00000000 </i>
  </energy>
  <time name="totalsc">   54.68   55.09</time>
 </calculation>
 <calculation>
  <scstep>
   <time name="dav">    2.04    2.05</time>
   <time name="total">    2.16    2.17</time>
   <energy>
    <i name="alphaZ">    476.21782353 </i>
    <i name="ewald">  -2356.57569259 </i>
    <i name="hartreedc"> -30666.47082871 </i>
    <i name="XCdc">   1803.08485212 </i>
    <i name="pawpsdc">  91598.36855939 </i>
    <i name="pawaedc"> -91106.13565718 </i>
    <i name="eentropy">     -0.00000000 </i>
    <i name="bandstr">  -5578.98225463 </i>
    <i name="atom">  34968.35250874 </i>
    <i name="e_fr_energy">   -862.14068933 </i>
    <i name="e_wo_entrp">   -862.14068933 </i>
    <i name="e_0_energy">   -862.14068933 </i>
   </energy>
  </scstep>
  <scstep>
   <time name="dav">    2.22    2.23</time>
   <time name="total">    2.33    2.34</time>
   <energy>
    <i name="e_fr_energy">   -866.53944762 </i>
    <i name="e_wo_entrp">   -866.53944762 </i>
    <i name="e_0_energy">   -866.53944762 </i>
   </energy>
  </scstep>
  <scstep>
   <time name="dav">    2.25    2.27</time>
   <time name="total">    2.36    2.38</time>
   <energy>
    <i name="e_fr_energy">   -865.62889630 </i>
    <i name="e_wo_entrp">   -865.62889630 </i>
    <i name="e_0_energy">   -865.62889630 </i>
   </energy>
  </scstep>
  <scstep>
   <time name="dav">    2.19    2.20</time>
   <time name="total">    2.44    2.46</time>
   <energy>
    <i name="e_fr_energy">   -865.36119015 </i>
    <i name="e_wo_entrp">   -865.36119015 </i>
    <i name="e_0_energy">   -865.36119015 </i>
   </energy>
  </scstep>
  <scstep>
   <time name="dav">    2.42    2.43</time>
   <time name="total">    2.53    2.54</time>
   <energy>
    <i name="e_fr_energy">   -865.33490823 </i>
    <i name="e_wo_entrp">   -865.33490823 </i>
    <i name="e_0_energy">   -865.33490823 </i>
   </energy>
  </scstep>
  <scstep>
   <time name="dav">    2.16    2.17</time>
   <time name="total">    2.26    2.28</time>
   <energy>
    <i name="e_fr_energy">   -865.32633284 </i>
    <i name="e_wo_entrp">   -865.32633284 </i>
    <i name="e_0_energy">   -865.32633284 </i>
   </energy>
  </scstep>
  <scstep>
   <time name="dav">    2.29    2.30</time>
   <time name="total">    2.40    2.42</time>
   <energy>
    <i name="e_fr_energy">   -865.31895127 </i>
    <i name="e_wo_entrp">   -865.31895127 </i>
    <i name="e_0_energy">   -865.31895127 </i>
   </energy>
  </scstep>
  <scstep>
   <time name="dav">    2.30    2.31</time>
   <time name="total">    2.42    2.44</time>
   <energy>
    <i name="e_fr_energy">   -865.31326830 </i>
    <i name="e_wo_entrp">   -865.31326830 </i>
    <i name="e_0_energy">   -865.31326830 </i>
   </energy>
  </scstep>
  <scstep>
   <time name="dav">    2.38    2.39</time>
   <time name="total">    2.68    2.70</time>
   <energy>
    <i name="e_fr_energy">   -865.31300731 </i>
    <i name="e_wo_entrp">   -865.31300731 </i>
    <i name="e_0_energy">   -865.31300731 </i>
   </energy>
  </scstep>
  <scstep>
   <time name="dav">    2.10    2.11</time>
   <time name="total">    2.21    2.23</time>
   <energy>
    <i name="e_fr_energy">   -865.31339379 </i>
    <i name="e_wo_entrp">   -865.31339379 </i>
    <i name="e_0_energy">   -865.31339379 </i>
   </energy>
  </scstep>
  <scstep>
   <time name="dav">    2.29    2.31</time>
   <time name="total">    2.40    2.42</time>
   <energy>
    <i name="e_fr_energy">   -865.31352024 </i>
    <i name="e_wo_entrp">   -865.31352024 </i>
    <i name="e_0_energy">   -865.31352024 </i>
   </energy>
  </scstep>
  <scstep>
   <time name="dav">    2.17    2.18</time>
   <time name="total">    2.28    2.29</time>
   <energy>
    <i name="e_fr_energy">   -865.31401297 </i>
    <i name="e_wo_entrp">   -865.31401297 </i>
    <i name="e_0_energy">   -865.31401297 </i>
   </energy>
  </scstep>
  <scstep>
   <time name="dav">    2.24    2.25</time>
   <time name="total">    2.34    2.36</time>
   <energy>
    <i name="e_fr_energy">   -865.31413428 </i>
    <i name="e_wo_entrp">   -865.31413428 </i>
    <i name="e_0_energy">   -865.31413428 </i>
   </energy>
  </scstep>
  <scstep>
   <time name="dav">    2.17    2.18</time>
   <time name="total">    2.28    2.29</time>
   <energy>
    <i name="e_fr_energy">   -865.31419863 </i>
    <i name="e_wo_entrp">   -865.31419863 </i>
    <i name="e_0_energy">   -865.31419863 </i>
   </energy>
  </scstep>
  <scstep>
   <time name="dav">    2.11    2.12</time>
   <time name="total">    2.23    2.24</time>
   <energy>
    <i name="e_fr_energy">   -865.31426063 </i>
    <i name="e_wo_entrp">   -865.31426063 </i>
    <i name="e_0_energy">   -865.31426063 </i>
   </energy>
  </scstep>
  <scstep>
   <time name="dav">    1.97    1.98</time>
   <time name="total">    2.08    2.09</time>
   <energy>
    <i name="e_fr_energy">   -865.31433755 </i>
    <i name="e_wo_entrp">   -865.31433755 </i>
    <i name="e_0_energy">   -865.31433755 </i>
   </energy>
  </scstep>
  <scstep>
   <time name="dav">    2.23    2.24</time>
   <time name="total">    2.34    2.35</time>
   <energy>
    <i name="e_fr_energy">   -865.31434375 </i>
    <i name="e_wo_entrp">   -865.31434375 </i>
    <i name="e_0_energy">   -865.31434375 </i>
   </energy>
  </scstep>
  <scstep>
   <time name="dav">    1.56    1.57</time>
   <time name="total">    1.67    1.69</time>
   <energy>
    <i name="e_fr_energy">   -865.31434765 </i>
    <i name="e_wo_entrp">   -865.31434765 </i>
    <i name="e_0_energy">   -865.31434765 </i>
   </energy>
  </scstep>
  <scstep>
   <time name="dav">    1.64    1.65</time>
   <time name="total">    1.77    1.78</time>
   <energy>
    <i name="e_fr_energy">   -865.31435630 </i>
    <i name="e_wo_entrp">   -865.31435630 </i>
    <i name="e_0_energy">   -865.31435630 </i>
   </energy>
  </scstep>
  <scstep>
   <time name="dav">    1.64    1.65</time>
   <time name="total">    1.77    1.78</time>
   <energy>
    <i name="e_fr_energy">   -865.31435816 </i>
    <i name="e_wo_entrp">   -865.31435816 </i>
    <i name="e_0_energy">   -865.31435816 </i>
   </energy>
  </scstep>
  <scstep>
   <time name="dav">    1.64    1.65</time>
   <time name="total">    1.69    1.71</time>
   <energy>
    <i name="alphaZ">    476.21782353 </i>
    <i name="ewald">  -2356.57569259 </i>
    <i name="hartreedc"> -30694.83085460 </i>
    <i name="XCdc">   1804.44929758 </i>
    <i name="pawpsdc">  94790.40439453 </i>
    <i name="pawaedc"> -94298.55982577 </i>
    <i name="eentropy">     -0.00000000 </i>
    <i name="bandstr">  -5554.77201003 </i>
    <i name="atom">  34968.35250874 </i>
    <i name="e_fr_energy">   -865.31435860 </i>
    <i name="e_wo_entrp">   -865.31435860 </i>
    <i name="e_0_energy">   -865.31435860 </i>
   </energy>
  </scstep>
  <structure>
   <crystal>
    <varray name="basis" >
     <v>      13.72957181      -0.00462456      -0.00141144 </v>
     <v>      -6.86873914      11.89091482       0.00181973 </v>
     <v>      -0.00151065       0.00130727      14.89037843 </v>
    </varray>
    <i name="volume">   2430.48799023 </i>
    <varray name="rec_basis" >
     <v>       0.07284966       0.04208131       0.00000370 </v>
     <v>       0.00002833       0.08411419      -0.00000738 </v>
     <v>       0.00000690      -0.00000629       0.06715746 </v>
    </varray>
   </crystal>
   <varray name="positions" >
    <v>       0.55825838       0.65097158       0.57088182 </v>
    <v>       0.61126852       0.80168318       0.43917426 </v>
    <v>       0.66136908       0.88934413       0.43446129 </v>
    <v>       0.66117867       0.75373750       0.43750560 </v>
    <v>       0.52055960       0.75041328       0.42423872 </v>
    <v>       0.01839372       0.33392146       0.83413695 </v>
    <v>       0.21157450       0.42616626       0.53515205 </v>
    <v>       0.54716004       0.09354280       0.20273110 </v>
    <v>       0.88080894       0.76073544       0.86704385 </v>
    <v>       0.45181219       0.54640282       0.79992224 </v>
    <v>       0.12062238       0.87957922       0.13145653 </v>
    <v>       0.09349524       0.54729470       0.79757145 </v>
    <v>       0.42912390       0.21333624       0.46632244 </v>
    <v>       0.76007287       0.88032049       0.13337045 </v>
    <v>       0.21475638       0.78774249       0.53369645 </v>
    <v>       0.90008883       0.09897050       0.12399603 </v>
    <v>       0.23936262       0.11969808       0.86786182 </v>
    <v>       0.86353614       0.43093825       0.45671413 </v>
    <v>       0.43500587       0.86361531       0.54314434 </v>
    <v>       0.98217697       0.31529346       0.16703662 </v>
    <v>       0.64797632       0.99914273       0.50115565 </v>
    <v>       0.00078744       0.64743580       0.49978396 </v>
    <v>       0.33293029       0.31446474       0.16699544 </v>
    <v>       0.98102922       0.66644782       0.16659935 </v>
    <v>       0.35219252       0.35011008       0.49981070 </v>
    <v>       0.68364212       0.01786227       0.16606031 </v>
    <v>       0.66654724       0.98212526       0.83314930 </v>
    <v>       0.00031829       0.35287399       0.49892772 </v>
    <v>       0.78646156       0.21141509       0.46572676 </v>
    <v>       0.33393023       0.01849451       0.16681587 </v>
    <v>       0.90602499       0.45270321       0.20052897 </v>
    <v>       0.31450283       0.33318858       0.83462089 </v>
    <v>       0.45366415       0.90729221       0.79821313 </v>
    <v>       0.07342130       0.66889618       0.66640899 </v>
    <v>       0.66866325       0.07172801       0.33394370 </v>
    <v>       0.99847445       0.73872693       0.00014630 </v>
    <v>       0.59475280       0.92803251       0.66371766 </v>
    <v>       0.92794393       0.59331564       0.33297299 </v>
    <v>       0.26037758       0.26013049       0.00067664 </v>
    <v>       0.40489671       0.33148106       0.33323487 </v>
    <v>       0.78851125       0.57344137       0.46465574 </v>
    <v>       0.73951240       0.99887223       0.00008987 </v>
    <v>       0.58188305       0.80506117       0.54518162 </v>
    <v>       0.59724381       0.66845352       0.68025901 </v>
    <v>       0.26181360       0.00090970       0.00000451 </v>
    <v>       0.07135159       0.40442287       0.66667398 </v>
    <v>       0.40516308       0.07316796       0.33376517 </v>
    <v>       0.33302672       0.40458221       0.66802903 </v>
    <v>       0.74143895       0.74173632       0.00052362 </v>
    <v>       0.54631135       0.45359555       0.20238845 </v>
    <v>       0.87988256       0.12057528       0.86801487 </v>
    <v>       0.33332975       0.92706454       0.66591749 </v>
    <v>       0.56787340       0.43246524       0.45521461 </v>
    <v>       0.66805825       0.59656214       0.33208761 </v>
    <v>       0.92687611       0.33337564       0.33314857 </v>
    <v>       0.35359428       0.00022919       0.50045388 </v>
    <v>       0.31526677       0.98213270       0.83286847 </v>
    <v>       0.90178604       0.80310920       0.12436151 </v>
    <v>       0.23484298       0.76637716       0.79054520 </v>
    <v>       0.11921217       0.23871338       0.13252398 </v>
    <v>       0.56964965       0.13490516       0.45524832 </v>
    <v>       0.23347819       0.46875563       0.78970989 </v>
    <v>       0.19785471       0.09828542       0.12378438 </v>
    <v>      -0.00005675       0.26076927       0.00062148 </v>
    <v>       0.09946643       0.90104390       0.87714586 </v>
    <v>       0.80306475       0.90247236       0.87537138 </v>
    <v>       0.41815663       0.55614522       0.54178126 </v>
    <v>       0.53125110       0.76852626       0.78971874 </v>
    <v>       0.76523376       0.53066930       0.21043844 </v>
    <v>       0.13676412       0.56897646       0.54493589 </v>
    <v>       0.46906546       0.23431667       0.20961916 </v>
    <v>       0.66009997       0.64230394       0.49333433 </v>
    <v>       0.76558206       0.23350093       0.20932378 </v>
    <v>       0.66764875       0.68635831       0.83588868 </v>
    <v>       0.01861527       0.68506210       0.83353079 </v>
    <v>       0.09866512       0.19825552       0.87691639 </v>
    <v>       0.68537155       0.66638089       0.16574640 </v>
    <v>       0.56092561       0.89316627       0.77392180 </v>
    <v>       0.99923142       0.77167528       0.89461601 </v>
    <v>       0.89532599       0.33399941       0.22774755 </v>
    <v>       0.77174191       0.99941978       0.10465528 </v>
    <v>       0.10752846       0.43862583       0.56202808 </v>
    <v>       0.33510353       0.43994079       0.77102561 </v>
    <v>      -0.00001199       0.77185375       0.10492105 </v>
    <v>       0.33317641       0.89489640       0.77243983 </v>
    <v>       0.22829890       0.99978065       0.10480960 </v>
    <v>       0.22794801       0.22778676       0.10530807 </v>
    <v>       0.10572803       0.43871639       0.77137995 </v>
    <v>       0.66858103       0.10901563       0.43671003 </v>
    <v>       0.00038750       0.22826391       0.10524566 </v>
    <v>       0.89604022       0.33472375       0.43848977 </v>
    <v>       0.33128211       0.89494042       0.56198186 </v>
    <v>       0.89381242       0.56112960       0.43851166 </v>
    <v>       0.10503569       0.66664345       0.77177292 </v>
    <v>       0.33823842       0.44411703       0.56157774 </v>
    <v>       0.89446264       0.56102598       0.22821301 </v>
    <v>       0.77252285       0.77230260       0.10473611 </v>
    <v>       0.66678969       0.56386688       0.44120445 </v>
    <v>       0.43908378       0.33495589       0.43962010 </v>
    <v>       0.10524158       0.66634941       0.56184957 </v>
    <v>       0.22822998       0.00077077       0.89485246 </v>
    <v>       0.66643911       0.56141114       0.22857931 </v>
    <v>       0.56315461       0.66558766       0.76697636 </v>
    <v>       0.00019967       0.22873945       0.89498031 </v>
    <v>       0.77143491       0.77163556       0.89358771 </v>
    <v>       0.66680069       0.10545737       0.22693391 </v>
    <v>       0.22848492       0.22879165       0.89479591 </v>
    <v>       0.43822391       0.33351009       0.22900445 </v>
    <v>       0.77268074       0.00008396       0.89445744 </v>
    <v>       0.55898825       0.90325930       0.56851799 </v>
    <v>       0.43833604       0.10581704       0.22825580 </v>
    <v>       0.43884377       0.10708145       0.43826130 </v>
   </varray>
  </structure>
  <varray name="forces" >
   <v>       0.48426666       1.73153406      -2.00999819 </v>
   <v>       0.36093312      -2.47365435       2.31378134 </v>
   <v>      -0.15996426       1.32446620      -1.53729017 </v>
   <v>      -2.00402048       1.27955839      -0.30424127 </v>
   <v>       0.41803612       0.62566545      -1.57432852 </v>
   <v>       0.01182601       0.27494000      -0.19099304 </v>
   <v>       2.12494447      -0.22046833      -0.01303938 </v>
   <v>      -0.55711860      -0.00872709      -0.01839559 </v>
   <v>      -0.45589803       0.00414140      -0.04746817 </v>
   <v>       0.69451468       1.27766679      -0.16450942 </v>
   <v>      -0.01506067      -0.04151808      -0.02074810 </v>
   <v>       0.16338231      -0.26746817       0.00288831 </v>
   <v>      -0.77659239       1.31985358       0.09084989 </v>
   <v>       0.14096855      -0.22511194      -0.04531135 </v>
   <v>      -0.50791942      -0.93402141      -0.02228560 </v>
   <v>       0.11408942       0.22519968      -0.03156711 </v>
   <v>      -0.15089816       0.28415821      -0.01515111 </v>
   <v>      -0.28043687       0.45680454       0.03265957 </v>
   <v>      -4.10764951      -0.35861388      -0.18186439 </v>
   <v>       0.13408940      -0.05515511      -0.11498712 </v>
   <v>      -0.68546078       2.07245009      -0.76500610 </v>
   <v>      -0.12248635      -0.06366753      -0.11464141 </v>
   <v>       0.04097071       0.03064640       0.03529281 </v>
   <v>       0.01974456       0.02112374      -0.03797092 </v>
   <v>      -1.16857055       0.78106531       1.17531597 </v>
   <v>       0.33619943      -0.18669059      -0.29263434 </v>
   <v>       0.24462266       0.15477728       0.14388680 </v>
   <v>       0.61507295       0.38066492       0.57187522 </v>
   <v>       0.95724234       1.71496557       0.06057706 </v>
   <v>      -0.18298919      -0.11470075      -0.16797537 </v>
   <v>      -0.11140171       0.21403663      -0.03232708 </v>
   <v>       0.01718573       0.86942674      -0.66213891 </v>
   <v>      -0.08614040       0.05510242      -0.08434600 </v>
   <v>      -0.02665496       0.03759514       0.25127169 </v>
   <v>      -0.04123461       0.04242728      -1.12380082 </v>
   <v>       0.01700846      -0.00880128      -0.31991276 </v>
   <v>       0.47092628       1.13606990       7.76734462 </v>
   <v>       0.06293483      -0.01381449       0.22632821 </v>
   <v>       0.00518406       0.00399069      -0.35101780 </v>
   <v>      -0.00155037       0.00805829       0.73170557 </v>
   <v>      -0.69675670      -0.28590778      -0.01616881 </v>
   <v>      -0.05654466      -0.00136763      -0.46638460 </v>
   <v>       4.37421204      -5.40270943      -1.86005825 </v>
   <v>       4.82007369      -0.10955816     -15.18659812 </v>
   <v>       0.02375065       0.00143617      -0.20168230 </v>
   <v>      -0.02057496       0.05182511       0.02243629 </v>
   <v>       0.00363718      -0.00659959      -0.19984644 </v>
   <v>       0.17301502       0.19881177      -1.33548549 </v>
   <v>       0.01466479       0.00470711      -0.83619076 </v>
   <v>      -0.10105193      -0.18821197      -0.07493951 </v>
   <v>       0.04397964       0.09128080       0.01734130 </v>
   <v>       0.03322922       0.04820977       0.88319129 </v>
   <v>       0.16783991       0.26986955       0.16310086 </v>
   <v>       0.01838818      -0.20601555       1.11356714 </v>
   <v>      -0.00354104      -0.00360304      -0.08709167 </v>
   <v>       0.00503924       0.42052511      -0.29408252 </v>
   <v>      -0.20407730       0.14190055       0.15919368 </v>
   <v>       0.07660729       0.00467860      -0.02226205 </v>
   <v>      -0.16968046      -0.32275556      -0.01876915 </v>
   <v>       0.20554639       0.01218001       0.00358389 </v>
   <v>      -1.79373102       0.18672559       0.08161652 </v>
   <v>       0.94513094       0.03791864      -0.03520011 </v>
   <v>      -0.06352670       0.13378537      -0.01246901 </v>
   <v>       0.00265395       0.01742990      -0.28983722 </v>
   <v>      -0.05684196      -0.13366815      -0.01845823 </v>
   <v>       0.31363685      -0.54084928      -0.03185093 </v>
   <v>       4.37730333      12.67900347      -1.95543786 </v>
   <v>       1.40237595      -2.69215512      -0.10592928 </v>
   <v>       0.00801889      -0.04291536      -0.07665447 </v>
   <v>       0.30099014      -0.42286264       0.02127835 </v>
   <v>      -0.22294593       0.38837333      -0.00683666 </v>
   <v>      -9.44675195      10.07739962      11.30899945 </v>
   <v>       0.23616031       0.49027456      -0.02083150 </v>
   <v>      -1.47699152      -0.98870604      -1.07676809 </v>
   <v>      -0.05125935       0.01950011       0.01948832 </v>
   <v>       0.23755370      -0.01332475       0.00178719 </v>
   <v>       0.02108557      -0.04254557      -0.01879720 </v>
   <v>      -0.50725174       1.89017364      -1.34182053 </v>
   <v>       0.29796572       0.08047613       0.25042994 </v>
   <v>      -0.15660976      -0.27904397       0.15326890 </v>
   <v>      -0.21647715      -0.00886153       0.44415155 </v>
   <v>      -1.58093688      -0.08620830      -0.05487677 </v>
   <v>      -0.90614368      -0.91853726       1.08290847 </v>
   <v>      -0.04784235       0.06667130       0.22308498 </v>
   <v>       0.18344567       0.17223505      -0.41850026 </v>
   <v>       0.10396933      -0.04021821       0.19251016 </v>
   <v>      -0.12025993      -0.15667579       0.18909258 </v>
   <v>      -0.62134615      -0.15947085       0.05190232 </v>
   <v>       0.70329448      -2.03488022       0.84262129 </v>
   <v>      -0.17597573      -0.15885554       0.20084744 </v>
   <v>      -0.38774013      -0.97752885      -0.10439929 </v>
   <v>       1.49129935      -0.11806021      -0.47959751 </v>
   <v>       0.82680928      -0.19408459      -0.32023595 </v>
   <v>       0.05323741       0.20747519      -0.10118176 </v>
   <v>      -4.29170570     -13.30940483       2.01505901 </v>
   <v>       0.02447137      -0.07958648      -0.04799658 </v>
   <v>      -0.10288934       0.23121960       0.55812620 </v>
   <v>       8.40027348     -10.34314103     -10.12643989 </v>
   <v>       0.68551469      -1.19725783      -0.92820087 </v>
   <v>       0.12564210       0.50908435      -0.22172306 </v>
   <v>       0.21635554      -0.11248422       0.10721701 </v>
   <v>       0.10757557       0.12705410      -0.21279070 </v>
   <v>      -5.17545548       0.23517160      16.86744001 </v>
   <v>      -0.16887697      -0.13588457       0.20499969 </v>
   <v>       0.73492080       0.96894103       1.13063290 </v>
   <v>       0.21809941      -0.32939119       0.91194087 </v>
   <v>      -0.16066957      -0.51017525       0.41444731 </v>
   <v>       0.26810658      -0.07548759      -0.39121377 </v>
   <v>      -0.34055133       0.26601161       0.16225584 </v>
   <v>      -0.34215216       2.18191647      -4.16804323 </v>
   <v>       0.38651841      -0.18638040       0.18992671 </v>
   <v>       1.04267204      -0.75086656       0.01737594 </v>
  </varray>
  <varray name="stress" >
   <v>     -18.05691655      -2.48557760      -7.05106729 </v>
   <v>      -2.48557765      -4.39026620       8.24710612 </v>
   <v>      -7.05106733       8.24710611      -2.58109470 </v>
  </varray>
  <energy>
   <i name="e_fr_energy">   -865.31435860 </i>
   <i name="e_wo_entrp">   -865.31435860 </i>
   <i name="e_0_energy">     -0.00000000 </i>
  </energy>
  <time name="totalsc">   48.37   48.73</time>
 </calculation>
 <calculation>
  <scstep>
   <time name="dav">    1.93    1.94</time>
   <time name="total">    2.04    2.06</time>
   <energy>
    <i name="alphaZ">    476.21782353 </i>
    <i name="ewald">  -2362.97490339 </i>
    <i name="hartreedc"> -30697.79238114 </i>
    <i name="XCdc">   1804.33602593 </i>
    <i name="pawpsdc">  94790.41584207 </i>
    <i name="pawaedc"> -94298.57128928 </i>
    <i name="eentropy">     -0.00000000 </i>
    <i name="bandstr">  -5548.98116948 </i>
    <i name="atom">  34968.35250874 </i>
    <i name="e_fr_energy">   -868.99754302 </i>
    <i name="e_wo_entrp">   -868.99754302 </i>
    <i name="e_0_energy">   -868.99754302 </i>
   </energy>
  </scstep>
  <scstep>
   <time name="dav">    2.13    2.14</time>
   <time name="total">    2.24    2.26</time>
   <energy>
    <i name="e_fr_energy">   -870.48716724 </i>
    <i name="e_wo_entrp">   -870.48716724 </i>
    <i name="e_0_energy">   -870.48716724 </i>
   </energy>
  </scstep>
  <scstep>
   <time name="dav">    2.17    2.18</time>
   <time name="total">    2.27    2.29</time>
   <energy>
    <i name="e_fr_energy">   -870.13882899 </i>
    <i name="e_wo_entrp">   -870.13882899 </i>
    <i name="e_0_energy">   -870.13882899 </i>
   </energy>
  </scstep>
  <scstep>
   <time name="dav">    2.13    2.15</time>
   <time name="total">    2.25    2.27</time>
   <energy>
    <i name="e_fr_energy">   -870.02593988 </i>
    <i name="e_wo_entrp">   -870.02593988 </i>
    <i name="e_0_energy">   -870.02593988 </i>
   </energy>
  </scstep>
  <scstep>
   <time name="dav">    2.15    2.17</time>
   <time name="total">    2.26    2.28</time>
   <energy>
    <i name="e_fr_energy">   -870.02415927 </i>
    <i name="e_wo_entrp">   -870.02415927 </i>
    <i name="e_0_energy">   -870.02415927 </i>
   </energy>
  </scstep>
  <scstep>
   <time name="dav">    2.24    2.25</time>
   <time name="total">    2.35    2.37</time>
   <energy>
    <i name="e_fr_energy">   -870.01890402 </i>
    <i name="e_wo_entrp">   -870.01890402 </i>
    <i name="e_0_energy">   -870.01890402 </i>
   </energy>
  </scstep>
  <scstep>
   <time name="dav">    2.24    2.26</time>
   <time name="total">    2.39    2.41</time>
   <energy>
    <i name="e_fr_energy">   -870.01632552 </i>
    <i name="e_wo_entrp">   -870.01632552 </i>
    <i name="e_0_energy">   -870.01632552 </i>
   </energy>
  </scstep>
  <scstep>
   <time name="dav">    2.44    2.45</time>
   <time name="total">    2.55    2.57</time>
   <energy>
    <i name="e_fr_energy">   -870.01475074 </i>
    <i name="e_wo_entrp">   -870.01475074 </i>
    <i name="e_0_energy">   -870.01475074 </i>
   </energy>
  </scstep>
  <scstep>
   <time name="dav">    2.13    2.14</time>
   <time name="total">    2.25    2.26</time>
   <energy>
    <i name="e_fr_energy">   -870.01499990 </i>
    <i name="e_wo_entrp">   -870.01499990 </i>
    <i name="e_0_energy">   -870.01499990 </i>
   </energy>
  </scstep>
  <scstep>
   <time name="dav">    2.26    2.28</time>
   <time name="total">    2.37    2.39</time>
   <energy>
    <i name="e_fr_energy">   -870.01526374 </i>
    <i name="e_wo_entrp">   -870.01526374 </i>
    <i name="e_0_energy">   -870.01526374 </i>
   </energy>
  </scstep>
  <scstep>
   <time name="dav">    2.15    2.16</time>
   <time name="total">    2.26    2.28</time>
   <energy>
    <i name="e_fr_energy">   -870.01534625 </i>
    <i name="e_wo_entrp">   -870.01534625 </i>
    <i name="e_0_energy">   -870.01534625 </i>
   </energy>
  </scstep>
  <scstep>
   <time name="dav">    2.08    2.09</time>
   <time name="total">    2.19    2.21</time>
   <energy>
    <i name="e_fr_energy">   -870.01548759 </i>
    <i name="e_wo_entrp">   -870.01548759 </i>
    <i name="e_0_energy">   -870.01548759 </i>
   </energy>
  </scstep>
  <scstep>
   <time name="dav">    2.12    2.14</time>
   <time name="total">    2.23    2.25</time>
   <energy>
    <i name="e_fr_energy">   -870.01565465 </i>
    <i name="e_wo_entrp">   -870.01565465 </i>
    <i name="e_0_energy">   -870.01565465 </i>
   </energy>
  </scstep>
  <scstep>
   <time name="dav">    2.15    2.16</time>
   <time name="total">    2.26    2.27</time>
   <energy>
    <i name="e_fr_energy">   -870.01568714 </i>
    <i name="e_wo_entrp">   -870.01568714 </i>
    <i name="e_0_energy">   -870.01568714 </i>
   </energy>
  </scstep>
  <scstep>
   <time name="dav">    2.07    2.08</time>
   <time name="total">    2.18    2.20</time>
   <energy>
    <i name="e_fr_energy">   -870.01570913 </i>
    <i name="e_wo_entrp">   -870.01570913 </i>
    <i name="e_0_energy">   -870.01570913 </i>
   </energy>
  </scstep>
  <scstep>
   <time name="dav">    1.96    1.97</time>
   <time name="total">    2.07    2.09</time>
   <energy>
    <i name="e_fr_energy">   -870.01574320 </i>
    <i name="e_wo_entrp">   -870.01574320 </i>
    <i name="e_0_energy">   -870.01574320 </i>
   </energy>
  </scstep>
  <scstep>
   <time name="dav">    1.83    1.85</time>
   <time name="total">    1.95    1.97</time>
   <energy>
    <i name="e_fr_energy">   -870.01575599 </i>
    <i name="e_wo_entrp">   -870.01575599 </i>
    <i name="e_0_energy">   -870.01575599 </i>
   </energy>
  </scstep>
  <scstep>
   <time name="dav">    1.57    1.58</time>
   <time name="total">    1.68    1.70</time>
   <energy>
    <i name="e_fr_energy">   -870.01575950 </i>
    <i name="e_wo_entrp">   -870.01575950 </i>
    <i name="e_0_energy">   -870.01575950 </i>
   </energy>
  </scstep>
  <scstep>
   <time name="dav">    1.54    1.55</time>
   <time name="total">    1.65    1.67</time>
   <energy>
    <i name="e_fr_energy">   -870.01576209 </i>
    <i name="e_wo_entrp">   -870.01576209 </i>
    <i name="e_0_energy">   -870.01576209 </i>
   </energy>
  </scstep>
  <scstep>
   <time name="dav">    1.61    1.62</time>
   <time name="total">    1.74    1.75</time>
   <energy>
    <i name="e_fr_energy">   -870.01576315 </i>
    <i name="e_wo_entrp">   -870.01576315 </i>
    <i name="e_0_energy">   -870.01576315 </i>
   </energy>
  </scstep>
  <scstep>
   <time name="dav">    1.66    1.67</time>
   <time name="total">    1.75    1.76</time>
   <energy>
    <i name="alphaZ">    476.21782353 </i>
    <i name="ewald">  -2362.97490339 </i>
    <i name="hartreedc"> -30689.11316323 </i>
    <i name="XCdc">   1803.80403427 </i>
    <i name="pawpsdc">  92328.42575561 </i>
    <i name="pawaedc"> -91836.23880135 </i>
    <i name="eentropy">     -0.00000000 </i>
    <i name="bandstr">  -5558.48901766 </i>
    <i name="atom">  34968.35250874 </i>
    <i name="e_fr_energy">   -870.01576348 </i>
    <i name="e_wo_entrp">   -870.01576348 </i>
    <i name="e_0_energy">   -870.01576348 </i>
   </energy>
  </scstep>
  <structure>
   <crystal>
    <varray name="basis" >
[...]
       <r>   -18.4146     0.0000   144.0000 </r>
       <r>   -18.3070     0.0000   144.0000 </r>
       <r>   -18.1994     0.0000   144.0000 </r>
       <r>   -18.0918     0.0000   144.0000 </r>
       <r>   -17.9842     0.0000   144.0000 </r>
       <r>   -17.8766     0.0000   144.0000 </r>
       <r>   -17.7690     0.0000   144.0000 </r>
       <r>   -17.6614     0.0000   144.0000 </r>
       <r>   -17.5538     0.0000   144.0000 </r>
       <r>   -17.4462     0.0000   144.0000 </r>
       <r>   -17.3386     0.0000   144.0000 </r>
       <r>   -17.2310     0.0000   144.0000 </r>
       <r>   -17.1234     0.0000   144.0000 </r>
       <r>   -17.0158     0.0000   144.0000 </r>
       <r>   -16.9082     0.0000   144.0000 </r>
       <r>   -16.8006     0.0000   144.0000 </r>
       <r>   -16.6930     0.0000   144.0000 </r>
       <r>   -16.5854     0.0000   144.0000 </r>
       <r>   -16.4778     0.0000   144.0000 </r>
       <r>   -16.3702     0.0000   144.0000 </r>
       <r>   -16.2626     0.0000   144.0000 </r>
       <r>   -16.1550     0.0000   144.0000 </r>
       <r>   -16.0474     0.0000   144.0000 </r>
       <r>   -15.9398     0.0000   144.0000 </r>
       <r>   -15.8322     0.0000   144.0000 </r>
       <r>   -15.7246     0.0000   144.0000 </r>
       <r>   -15.6170     0.0000   144.0000 </r>
       <r>   -15.5094     0.0000   144.0000 </r>
       <r>   -15.4018     0.0000   144.0000 </r>
       <r>   -15.2942     0.0000   144.0000 </r>
       <r>   -15.1866     0.0000   144.0000 </r>
       <r>   -15.0790     0.0000   144.0000 </r>
       <r>   -14.9714     0.0000   144.0000 </r>
       <r>   -14.8638     0.0000   144.0000 </r>
       <r>   -14.7562     0.0000   144.0000 </r>
       <r>   -14.6486     0.0000   144.0000 </r>
       <r>   -14.5410     0.0000   144.0000 </r>
       <r>   -14.4334     0.0000   144.0000 </r>
       <r>   -14.3258     0.0000   144.0000 </r>
       <r>   -14.2182     0.0000   144.0000 </r>
       <r>   -14.1106     0.0000   144.0000 </r>
       <r>   -14.0030     0.0000   144.0000 </r>
       <r>   -13.8954     0.0000   144.0000 </r>
       <r>   -13.7878     0.0000   144.0000 </r>
       <r>   -13.6802     0.0004   144.0000 </r>
       <r>   -13.5726     0.0934   144.0101 </r>
       <r>   -13.4650     2.6321   144.2933 </r>
       <r>   -13.3574     9.9341   145.3622 </r>
       <r>   -13.2498     5.4971   145.9537 </r>
       <r>   -13.1422     0.4264   145.9996 </r>
       <r>   -13.0346     0.0041   146.0000 </r>
       <r>   -12.9270     0.0000   146.0000 </r>
       <r>   -12.8194     0.0000   146.0000 </r>
       <r>   -12.7118     0.0000   146.0000 </r>
       <r>   -12.6042     0.0000   146.0000 </r>
       <r>   -12.4966     0.0011   146.0001 </r>
       <r>   -12.3890     0.1843   146.0199 </r>
       <r>   -12.2814     3.7218   146.4204 </r>
       <r>   -12.1738    10.2750   147.5260 </r>
       <r>   -12.0662     4.1709   147.9748 </r>
       <r>   -11.9586     0.2358   148.0001 </r>
       <r>   -11.8511     0.3928   148.0424 </r>
       <r>   -11.7435     7.2466   148.8221 </r>
       <r>   -11.6359    20.0776   150.9824 </r>
       <r>   -11.5283    10.9596   152.1617 </r>
       <r>   -11.4207    17.3753   154.0312 </r>
       <r>   -11.3131    26.3468   156.8661 </r>
       <r>   -11.2055    14.9009   158.4694 </r>
       <r>   -11.0979    14.8788   160.0704 </r>
       <r>   -10.9903    21.2333   162.3550 </r>
       <r>   -10.8827    13.7571   163.8353 </r>
       <r>   -10.7751     4.6226   164.3326 </r>
       <r>   -10.6675    22.0249   166.7025 </r>
       <r>   -10.5599    48.7090   171.9435 </r>
       <r>   -10.4523    42.4067   176.5064 </r>
       <r>   -10.3447    23.5560   179.0410 </r>
       <r>   -10.2371    14.4649   180.5974 </r>
       <r>   -10.1295    18.4625   182.5839 </r>
       <r>   -10.0219    11.6456   183.8370 </r>
       <r>    -9.9143     4.8200   184.3556 </r>
       <r>    -9.8067    22.9920   186.8295 </r>
       <r>    -9.6991    32.9172   190.3714 </r>
       <r>    -9.5915    27.7879   193.3613 </r>
       <r>    -9.4839    28.0435   196.3787 </r>
       <r>    -9.3763    14.2619   197.9133 </r>
       <r>    -9.2687     8.0966   198.7845 </r>
       <r>    -9.1611    16.7642   200.5883 </r>
       <r>    -9.0535    14.1964   202.1158 </r>
       <r>    -8.9459    11.8491   203.3907 </r>
       <r>    -8.8383     6.3863   204.0779 </r>
       <r>    -8.7307    14.4752   205.6354 </r>
       <r>    -8.6231    34.5818   209.3564 </r>
       <r>    -8.5155    39.8915   213.6486 </r>
       <r>    -8.4079    44.5170   218.4386 </r>
       <r>    -8.3003    51.4815   223.9779 </r>
       <r>    -8.1927    70.4820   231.5617 </r>
       <r>    -8.0851    71.2934   239.2327 </r>
       <r>    -7.9775    65.5047   246.2810 </r>
       <r>    -7.8699    80.9887   254.9952 </r>
       <r>    -7.7623    82.9399   263.9194 </r>
       <r>    -7.6547    59.3563   270.3061 </r>
       <r>    -7.5471    38.4465   274.4429 </r>
       <r>    -7.4395    33.2794   278.0237 </r>
       <r>    -7.3319    31.4953   281.4125 </r>
       <r>    -7.2243    32.5964   284.9199 </r>
       <r>    -7.1167    24.3838   287.5435 </r>
       <r>    -7.0091    18.0462   289.4853 </r>
       <r>    -6.9015     4.5786   289.9779 </r>
       <r>    -6.7939     0.2109   290.0006 </r>
       <r>    -6.6863     0.5837   290.0634 </r>
       <r>    -6.5787     6.5157   290.7645 </r>
       <r>    -6.4711    14.2638   292.2992 </r>
       <r>    -6.3635    19.7926   294.4289 </r>
       <r>    -6.2559    30.2676   297.6857 </r>
       <r>    -6.1483    27.0575   300.5970 </r>
       <r>    -6.0407    40.2096   304.9235 </r>
       <r>    -5.9331    73.4253   312.8239 </r>
       <r>    -5.8255    85.0066   321.9705 </r>
       <r>    -5.7179    69.0365   329.3987 </r>
       <r>    -5.6103    59.8380   335.8372 </r>
       <r>    -5.5027    46.6484   340.8565 </r>
       <r>    -5.3951    31.1826   344.2117 </r>
       <r>    -5.2875    25.9210   347.0008 </r>
       <r>    -5.1799    40.1365   351.3194 </r>
       <r>    -5.0723    62.6104   358.0562 </r>
       <r>    -4.9647    79.5004   366.6103 </r>
       <r>    -4.8571    72.6571   374.4281 </r>
       <r>    -4.7495    56.6879   380.5277 </r>
       <r>    -4.6420    70.6173   388.1260 </r>
       <r>    -4.5344   122.1256   401.2665 </r>
       <r>    -4.4268   164.3443   418.9497 </r>
       <r>    -4.3192   164.6224   436.6628 </r>
       <r>    -4.2116   138.7490   451.5920 </r>
       <r>    -4.1040   117.2971   464.2130 </r>
       <r>    -3.9964   120.7601   477.2066 </r>
       <r>    -3.8888   129.9646   491.1906 </r>
       <r>    -3.7812   116.9816   503.7777 </r>
       <r>    -3.6736    97.8441   514.3056 </r>
       <r>    -3.5660    58.9111   520.6443 </r>
       <r>    -3.4584    32.3499   524.1251 </r>
       <r>    -3.3508    38.6679   528.2857 </r>
       <r>    -3.2432    58.6604   534.5975 </r>
       <r>    -3.1356    75.5913   542.7310 </r>
       <r>    -3.0280    76.5166   550.9641 </r>
       <r>    -2.9204    79.7660   559.5468 </r>
       <r>    -2.8128    79.4737   568.0980 </r>
       <r>    -2.7052    62.7428   574.8490 </r>
       <r>    -2.5976    31.2500   578.2115 </r>
       <r>    -2.4900    15.0793   579.8340 </r>
       <r>    -2.3824    11.6461   581.0871 </r>
       <r>    -2.2748     7.5563   581.9002 </r>
       <r>    -2.1672     0.9136   581.9985 </r>
       <r>    -2.0596     0.0143   582.0000 </r>
       <r>    -1.9520     0.0000   582.0000 </r>
       <r>    -1.8444     0.0000   582.0000 </r>
       <r>    -1.7368     0.0000   582.0000 </r>
       <r>    -1.6292     0.0000   582.0000 </r>
       <r>    -1.5216     0.0000   582.0000 </r>
       <r>    -1.4140     0.0000   582.0000 </r>
       <r>    -1.3064     0.0000   582.0000 </r>
       <r>    -1.1988     0.0000   582.0000 </r>
       <r>    -1.0912     0.0000   582.0000 </r>
       <r>    -0.9836     0.0000   582.0000 </r>
       <r>    -0.8760     0.0000   582.0000 </r>
       <r>    -0.7684     0.0000   582.0000 </r>
       <r>    -0.6608     0.0000   582.0000 </r>
       <r>    -0.5532     0.0000   582.0000 </r>
       <r>    -0.4456     0.0000   582.0000 </r>
       <r>    -0.3380     0.0000   582.0000 </r>
       <r>    -0.2304     0.0000   582.0000 </r>
       <r>    -0.1228     0.0000   582.0000 </r>
       <r>    -0.0152     0.0000   582.0000 </r>
       <r>     0.0924     0.0000   582.0000 </r>
       <r>     0.2000     0.0000   582.0000 </r>
       <r>     0.3076     0.0000   582.0000 </r>
       <r>     0.4152     0.0000   582.0000 </r>
       <r>     0.5228     0.0000   582.0000 </r>
       <r>     0.6304     0.0000   582.0000 </r>
       <r>     0.7380     0.0000   582.0000 </r>
       <r>     0.8456     0.0000   582.0000 </r>
       <r>     0.9532     0.0000   582.0000 </r>
       <r>     1.0608     0.0000   582.0000 </r>
       <r>     1.1684     0.0000   582.0000 </r>
       <r>     1.2760     0.0000   582.0000 </r>
       <r>     1.3836     0.0000   582.0000 </r>
       <r>     1.4912     0.0000   582.0000 </r>
       <r>     1.5988     0.0000   582.0000 </r>
       <r>     1.7064     0.0000   582.0000 </r>
       <r>     1.8140     0.0000   582.0000 </r>
       <r>     1.9216     0.0000   582.0000 </r>
       <r>     2.0292     0.0000   582.0000 </r>
       <r>     2.1368     0.0000   582.0000 </r>
       <r>     2.2444     0.0000   582.0000 </r>
       <r>     2.3520     0.0000   582.0000 </r>
       <r>     2.4596     0.0000   582.0000 </r>
       <r>     2.5671     0.0000   582.0000 </r>
       <r>     2.6747     0.0048   582.0005 </r>
       <r>     2.7823     0.4730   582.0514 </r>
       <r>     2.8899     5.7479   582.6699 </r>
       <r>     2.9975     9.8213   583.7266 </r>
       <r>     3.1051     2.4581   583.9911 </r>
       <r>     3.2127     0.0821   584.0000 </r>
       <r>     3.3203     0.0005   584.0000 </r>
       <r>     3.4279     0.0467   584.0050 </r>
       <r>     3.5355     1.8105   584.1999 </r>
       <r>     3.6431     9.4388   585.2155 </r>
       <r>     3.7507    11.0708   586.4067 </r>
       <r>     3.8583    10.9854   587.5887 </r>
       <r>     3.9659     3.7568   587.9929 </r>
       <r>     4.0735     3.1638   588.3333 </r>
       <r>     4.1811    14.3130   589.8734 </r>
       <r>     4.2887    28.5336   592.9435 </r>
       <r>     4.3963    27.1566   595.8655 </r>
       <r>     4.5039    15.8245   597.5682 </r>
       <r>     4.6115    16.4883   599.3423 </r>
       <r>     4.7191    19.3919   601.4289 </r>
       <r>     4.8267     5.5105   602.0218 </r>
       <r>     4.9343     8.4007   602.9257 </r>
       <r>     5.0419    33.7547   606.5577 </r>
       <r>     5.1495    59.5055   612.9604 </r>
       <r>     5.2571    65.9390   620.0553 </r>
       <r>     5.3647    33.8073   623.6929 </r>
       <r>     5.4723    14.2946   625.2310 </r>
       <r>     5.5799    11.5643   626.4753 </r>
       <r>     5.6875    15.4068   628.1330 </r>
       <r>     5.7951    22.5901   630.5637 </r>
       <r>     5.9027    28.2469   633.6030 </r>
       <r>     6.0103    28.6391   636.6846 </r>
       <r>     6.1179    44.4223   641.4643 </r>
       <r>     6.2255    65.1514   648.4745 </r>
       <r>     6.3331    83.4733   657.4561 </r>
       <r>     6.4407    78.4631   665.8986 </r>
       <r>     6.5483    90.2975   675.6145 </r>
       <r>     6.6559   101.4204   686.5272 </r>
       <r>     6.7635    98.1939   697.0927 </r>
       <r>     6.8711    55.4341   703.0574 </r>
       <r>     6.9787     8.5240   703.9745 </r>
       <r>     7.0863     0.2358   703.9999 </r>
       <r>     7.1939     0.0009   704.0000 </r>
       <r>     7.3015     0.0000   704.0000 </r>
       <r>     7.4091     0.0000   704.0000 </r>
       <r>     7.5167     0.0000   704.0000 </r>
       <r>     7.6243     0.0000   704.0000 </r>
       <r>     7.7319     0.0000   704.0000 </r>
       <r>     7.8395     0.0000   704.0000 </r>
       <r>     7.9471     0.0000   704.0000 </r>
       <r>     8.0547     0.0000   704.0000 </r>
       <r>     8.1623     0.0000   704.0000 </r>
       <r>     8.2699     0.0000   704.0000 </r>
      </set>
     </set>
    </array>
   </total>
  </dos>
 </calculation>
 <structure name="finalpos" >
  <crystal>
   <varray name="basis" >
    <v>      13.72957181      -0.00462456      -0.00141144 </v>
    <v>      -6.86873914      11.89091482       0.00181973 </v>
    <v>      -0.00151065       0.00130727      14.89037843 </v>
   </varray>
   <i name="volume">   2430.48799023 </i>
   <varray name="rec_basis" >
    <v>       0.07284966       0.04208131       0.00000370 </v>
    <v>       0.00002833       0.08411419      -0.00000738 </v>
    <v>       0.00000690      -0.00000629       0.06715746 </v>
   </varray>
  </crystal>
  <varray name="positions" >
   <v>       0.56558597       0.66511925       0.56797319 </v>
   <v>       0.59958254       0.80527621       0.41911575 </v>
   <v>       0.64534188       0.89282834       0.39690771 </v>
   <v>       0.64725275       0.76337740       0.40311625 </v>
   <v>       0.51517663       0.76031469       0.38945951 </v>
   <v>       0.01678443       0.33274693       0.83547453 </v>
   <v>       0.20975290       0.42060553       0.53838204 </v>
   <v>       0.54895791       0.09375089       0.20438273 </v>
   <v>       0.87844206       0.75932191       0.86610999 </v>
   <v>       0.45071722       0.54611286       0.80184395 </v>
   <v>       0.12335176       0.87846035       0.13197663 </v>
   <v>       0.09347154       0.54670956       0.80082257 </v>
   <v>       0.41688740       0.20932351       0.46445020 </v>
   <v>       0.76312035       0.88073697       0.13713324 </v>
   <v>       0.21655494       0.78310808       0.53432033 </v>
   <v>       0.90075151       0.09922944       0.12388790 </v>
   <v>       0.23879522       0.11946897       0.86666266 </v>
   <v>       0.87686218       0.43719769       0.45548222 </v>
   <v>       0.43418606       0.86334101       0.54659031 </v>
   <v>       0.98280304       0.31498439       0.16629491 </v>
   <v>       0.64863440       0.01569439       0.51302684 </v>
   <v>       0.00389818       0.65256137       0.49963455 </v>
   <v>       0.33516381       0.31380428       0.16540067 </v>
   <v>       0.98439802       0.66351794       0.16347866 </v>
   <v>       0.35666709       0.35840070       0.50014247 </v>
   <v>       0.68563214       0.01591263       0.17169043 </v>
   <v>       0.66637102       0.98384235       0.83523567 </v>
   <v>      -0.00057125       0.34481160       0.50289452 </v>
   <v>       0.78715376       0.21881360       0.46250704 </v>
   <v>       0.33734197       0.01995746       0.16379050 </v>
   <v>       0.90493698       0.45017400       0.20290876 </v>
   <v>       0.31318715       0.33260378       0.83402621 </v>
   <v>       0.45433865       0.91061328       0.79651787 </v>
   <v>       0.07370663       0.66616472       0.66701560 </v>
   <v>       0.66217529       0.06644637       0.33890331 </v>
   <v>       0.99776577       0.74124022      -0.00012436 </v>
   <v>       0.59187892       0.90806363       0.67116331 </v>
   <v>       0.93615456       0.59817451       0.33173588 </v>
   <v>       0.25782789       0.25766131       0.00009136 </v>
   <v>       0.40551255       0.33458664       0.33286348 </v>
   <v>       0.78948124       0.56700026       0.46167378 </v>
   <v>       0.73648841       0.99622206       0.00309588 </v>
   <v>       0.58872922       0.80274448       0.51866771 </v>
   <v>       0.59866647       0.68785247       0.67913110 </v>
   <v>       0.26042450      -0.00027913      -0.00135864 </v>
   <v>       0.06757001       0.40428382       0.66887329 </v>
   <v>       0.40307505       0.07005247       0.33240195 </v>
   <v>       0.33485402       0.40496005       0.66761983 </v>
   <v>       0.74858549       0.74352638       0.00478870 </v>
   <v>       0.54896264       0.45317656       0.20130265 </v>
   <v>       0.87829330       0.11922415       0.87200529 </v>
   <v>       0.33186896       0.92762788       0.66576860 </v>
   <v>       0.57087262       0.42529881       0.45395494 </v>
   <v>       0.66675363       0.59253638       0.33509726 </v>
   <v>       0.93676764       0.33478636       0.33388334 </v>
   <v>       0.35459334      -0.00238013       0.49833421 </v>
   <v>       0.31332741       0.98138337       0.83200879 </v>
   <v>       0.90478334       0.80220283       0.13105697 </v>
   <v>       0.23541198       0.76547710       0.78963791 </v>
   <v>       0.12016299       0.23742221       0.13446996 </v>
   <v>       0.56769878       0.14437958       0.45390060 </v>
   <v>       0.23235860       0.46668009       0.78941722 </v>
   <v>       0.19822556       0.09706735       0.12400213 </v>
   <v>       0.00346543       0.26160839       0.00125536 </v>
   <v>       0.09751032       0.90107259       0.87559657 </v>
   <v>       0.79953575       0.89956969       0.87811914 </v>
   <v>       0.42537113       0.57256719       0.54654045 </v>
   <v>       0.52610746       0.76467388       0.81055013 </v>
   <v>       0.76889548       0.53322079       0.21186225 </v>
   <v>       0.13189212       0.56307009       0.54337636 </v>
   <v>       0.47089089       0.23496034       0.21135966 </v>
   <v>       0.65523993       0.64186385       0.50400100 </v>
   <v>       0.76807709       0.23115321       0.21769947 </v>
   <v>       0.66040013       0.68012618       0.84558010 </v>
   <v>       0.01938520       0.68577697       0.83393052 </v>
   <v>       0.09685702       0.19574441       0.87582271 </v>
   <v>       0.68690933       0.66762732       0.16999432 </v>
   <v>       0.55905734       0.89044159       0.77876869 </v>
   <v>      -0.00170460       0.77190811       0.89418332 </v>
   <v>       0.89774451       0.33269723       0.23029501 </v>
   <v>       0.77186687       0.99855074       0.10783715 </v>
   <v>       0.10358635       0.43456234       0.56408867 </v>
   <v>       0.33297761       0.43818825       0.77201647 </v>
   <v>       0.00211656       0.77151850       0.10595984 </v>
   <v>       0.33275043       0.89520907       0.77102312 </v>
   <v>       0.22965397      -0.00079494       0.10422733 </v>
   <v>       0.22814255       0.22628555       0.10560523 </v>
   <v>       0.10343703       0.43762416       0.77329926 </v>
   <v>       0.66579721       0.11254207       0.44088731 </v>
   <v>       0.00172007       0.22775281       0.10598650 </v>
   <v>       0.90081962       0.33483075       0.43797239 </v>
   <v>       0.33345685       0.89329398       0.56168481 </v>
   <v>       0.90152495       0.56397191       0.43645249 </v>
   <v>       0.10557517       0.66615485       0.77249548 </v>
   <v>       0.33449409       0.44243575       0.56311428 </v>
   <v>       0.89790703       0.56143502       0.22798978 </v>
   <v>       0.77635398       0.77340338       0.11014818 </v>
   <v>       0.66923921       0.55686647       0.43991625 </v>
   <v>       0.43833189       0.33378490       0.43824849 </v>
   <v>       0.10612589       0.66491936       0.56198375 </v>
   <v>       0.22676866      -0.00008051       0.89380147 </v>
   <v>       0.66820404       0.56105921       0.23022452 </v>
   <v>       0.55901527       0.66879997       0.78165250 </v>
   <v>      -0.00070996       0.22727053       0.89617443 </v>
   <v>       0.77168255       0.77107582       0.89826303 </v>
   <v>       0.66684421       0.10264129       0.23308631 </v>
   <v>       0.22640377       0.22683202       0.89450989 </v>
   <v>       0.44001332       0.33394832       0.22846489 </v>
   <v>       0.77027768      -0.00106656       0.89758140 </v>
   <v>       0.56441057       0.90164545       0.56585152 </v>
   <v>       0.43987434       0.10542940       0.22815420 </v>
   <v>       0.43553849       0.10601449       0.43703945 </v>
  </varray>
 </structure>
</modeling>
