unknown system                          
           1
    13.729572   -0.004625   -0.001411
    -6.868739   11.890915    0.001820
    -0.001511    0.001307   14.890378
   Al   C    H    O    Si
   1   1   3  72  35
Direct configuration=     1
   0.56226675  0.66695774  0.56210364
   0.61453287  0.79811990  0.44065146
   0.65991378  0.88882947  0.44064467
   0.65987890  0.75279157  0.44066129
   0.52380594  0.75273865  0.44064840
   0.01866908  0.33415778  0.83400028
   0.21409633  0.42707628  0.53524471
   0.54684068  0.09367858  0.20255533
   0.88033373  0.76060205  0.86690236
   0.45307532  0.54735605  0.79899071
   0.12054702  0.87953215  0.13137146
   0.09356834  0.54704988  0.79753904
   0.42908437  0.21450775  0.46642178
   0.76014491  0.88009731  0.13310068
   0.21378515  0.78703006  0.53379068
   0.90028721  0.09915112  0.12387986
   0.23937203  0.11999702  0.86781467
   0.86357454  0.43151607  0.45676915
   0.43242939  0.86426723  0.54370028
   0.98229452  0.31530457  0.16694177
   0.64817130  0.99953414  0.49955176
   0.00043896  0.64720847  0.49975529
   0.33298125  0.31452668  0.16704582
   0.98098642  0.66644197  0.16658376
   0.35239198  0.35174152  0.50050091
   0.68385168  0.01788778  0.16566335
   0.66669377  0.98186541  0.83352303
   0.00116992  0.35335410  0.49925248
   0.78762049  0.21296121  0.46562061
   0.33373752  0.01849548  0.16668310
   0.90604538  0.45293233  0.20052744
   0.31495955  0.33394208  0.83414386
   0.45343721  0.90696615  0.79859222
   0.07328832  0.66873069  0.66657635
   0.66878397  0.07248771  0.33291341
   0.99839898  0.73872197  0.99995682
   0.59484588  0.92882677  0.66664679
   0.92775304  0.59328347  0.33317011
   0.26044392  0.26022676  0.00041043
   0.40496547  0.33173231  0.33375974
   0.78717796  0.57370545  0.46504080
   0.73962094  0.99881333  0.99981828
   0.57346146  0.78656886  0.53553586
   0.59502641  0.66649762  0.66714202
   0.26173374  0.00093142  0.99988745
   0.07171686  0.40445488  0.66663892
   0.40502615  0.07341303  0.33357486
   0.33388493  0.40556150  0.66715660
   0.74130148  0.74157771  0.99990420
   0.54626077  0.45356368  0.20249386
   0.88005958  0.12063688  0.86801315
   0.33290645  0.92704622  0.66660571
   0.56813333  0.43345568  0.45573462
   0.66787315  0.59620520  0.33318521
   0.92707692  0.33365692  0.33309150
   0.35337550  0.00075342  0.50030064
   0.31507762  0.98219159  0.83302738
   0.90175571  0.80301538  0.12424376
   0.23451294  0.76604255  0.79065746
   0.11938162  0.23874371  0.13244245
   0.56886513  0.13557705  0.45505081
   0.23426633  0.46883248  0.78952332
   0.19789636  0.09842721  0.12373094
   0.00001922  0.26079870  0.00040007
   0.09929620  0.90094046  0.87711490
   0.80289743  0.90184265  0.87522089
   0.43312280  0.56754296  0.54387454
   0.53149813  0.76617893  0.78927568
   0.76513887  0.53069600  0.21050735
   0.13681379  0.56845723  0.54503361
   0.46898042  0.23467224  0.20963910
   0.64913284  0.64895484  0.50026552
   0.76597739  0.23394914  0.20912494
   0.66631742  0.68549264  0.83419044
   0.01850874  0.68504333  0.83354036
   0.09893653  0.19841567  0.87681325
   0.68535530  0.66617265  0.16567902
   0.56160226  0.89548670  0.77161425
   0.99963954  0.77178059  0.89479173
   0.89488496  0.33352588  0.22786143
   0.77144754  0.99942864  0.10518678
   0.10592703  0.43874517  0.56189606
   0.33357859  0.43886748  0.77206256
   0.00004570  0.77197853  0.10511512
   0.33358113  0.89516793  0.77182313
   0.22843925  0.99974974  0.10499738
   0.22769218  0.22754836  0.10550695
   0.10497779  0.43863490  0.77151563
   0.66790209  0.10513258  0.43790817
   0.00006699  0.22803651  0.10547304
   0.89486199  0.33327201  0.43832718
   0.33354587  0.89477868  0.56149855
   0.89471565  0.56103274  0.43828992
   0.10537040  0.66709381  0.77164668
   0.33375432  0.43838063  0.56208668
   0.89452606  0.56088599  0.22808763
   0.77256536  0.77270690  0.10534218
   0.66765425  0.56266940  0.43814029
   0.43903444  0.33331600  0.43871159
   0.10601279  0.66735158  0.56164940
   0.22845574  0.00058940  0.89487405
   0.66657228  0.56165633  0.22836123
   0.56149853  0.66686609  0.77198996
   0.99987949  0.22851408  0.89520799
   0.77276445  0.77281234  0.89450369
   0.66676104  0.10493668  0.22800227
   0.22801816  0.22811264  0.89521057
   0.43835039  0.33325187  0.22863568
   0.77236684  0.00040877  0.89457899
   0.56181870  0.89478902  0.56175798
   0.43865925  0.10549905  0.22850692
   0.43951841  0.10602589  0.43844766
Direct configuration=     2
   0.55825838  0.65097158  0.57088182
   0.61126852  0.80168318  0.43917426
   0.66136908  0.88934413  0.43446129
   0.66117867  0.75373750  0.43750560
   0.52055960  0.75041328  0.42423872
   0.01839372  0.33392146  0.83413695
   0.21157450  0.42616626  0.53515205
   0.54716004  0.09354280  0.20273110
   0.88080894  0.76073544  0.86704385
   0.45181219  0.54640282  0.79992224
   0.12062238  0.87957922  0.13145653
   0.09349524  0.54729470  0.79757145
   0.42912390  0.21333624  0.46632244
   0.76007287  0.88032049  0.13337045
   0.21475638  0.78774249  0.53369645
   0.90008883  0.09897050  0.12399603
   0.23936262  0.11969808  0.86786182
   0.86353614  0.43093825  0.45671413
   0.43500587  0.86361531  0.54314434
   0.98217697  0.31529346  0.16703662
   0.64797632  0.99914273  0.50115565
   0.00078744  0.64743580  0.49978396
   0.33293029  0.31446474  0.16699544
   0.98102922  0.66644782  0.16659935
   0.35219252  0.35011008  0.49981070
   0.68364212  0.01786227  0.16606031
   0.66654724  0.98212526  0.83314930
   0.00031829  0.35287399  0.49892772
   0.78646156  0.21141509  0.46572676
   0.33393023  0.01849451  0.16681587
   0.90602499  0.45270321  0.20052897
   0.31450283  0.33318858  0.83462089
   0.45366415  0.90729221  0.79821313
   0.07342130  0.66889618  0.66640899
   0.66866325  0.07172801  0.33394370
   0.99847445  0.73872693  0.00014630
   0.59475280  0.92803251  0.66371766
   0.92794393  0.59331564  0.33297299
   0.26037758  0.26013049  0.00067664
   0.40489671  0.33148106  0.33323487
   0.78851125  0.57344137  0.46465574
   0.73951240  0.99887223  0.00008987
   0.58188305  0.80506117  0.54518162
   0.59724381  0.66845352  0.68025901
   0.26181360  0.00090970  0.00000451
   0.07135159  0.40442287  0.66667398
   0.40516308  0.07316796  0.33376517
   0.33302672  0.40458221  0.66802903
   0.74143895  0.74173632  0.00052362
   0.54631135  0.45359555  0.20238845
   0.87988256  0.12057528  0.86801487
   0.33332975  0.92706454  0.66591749
   0.56787340  0.43246524  0.45521461
   0.66805825  0.59656214  0.33208761
   0.92687611  0.33337564  0.33314857
   0.35359428  0.00022919  0.50045388
   0.31526677  0.98213270  0.83286847
   0.90178604  0.80310920  0.12436151
   0.23484298  0.76637716  0.79054520
   0.11921217  0.23871338  0.13252398
   0.56964965  0.13490516  0.45524832
   0.23347819  0.46875563  0.78970989
   0.19785471  0.09828542  0.12378438
  -0.00005675  0.26076927  0.00062148
   0.09946643  0.90104390  0.87714586
   0.80306475  0.90247236  0.87537138
   0.41815663  0.55614522  0.54178126
   0.53125110  0.76852626  0.78971874
   0.76523376  0.53066930  0.21043844
   0.13676412  0.56897646  0.54493589
   0.46906546  0.23431667  0.20961916
   0.66009997  0.64230394  0.49333433
   0.76558206  0.23350093  0.20932378
   0.66764875  0.68635831  0.83588868
   0.01861527  0.68506210  0.83353079
   0.09866512  0.19825552  0.87691639
   0.68537155  0.66638089  0.16574640
   0.56092561  0.89316627  0.77392180
   0.99923142  0.77167528  0.89461601
   0.89532599  0.33399941  0.22774755
   0.77174191  0.99941978  0.10465528
   0.10752846  0.43862583  0.56202808
   0.33510353  0.43994079  0.77102561
  -0.00001199  0.77185375  0.10492105
   0.33317641  0.89489640  0.77243983
   0.22829890  0.99978065  0.10480960
   0.22794801  0.22778676  0.10530807
   0.10572803  0.43871639  0.77137995
   0.66858103  0.10901563  0.43671003
   0.00038750  0.22826391  0.10524566
   0.89604022  0.33472375  0.43848977
   0.33128211  0.89494042  0.56198186
   0.89381242  0.56112960  0.43851166
   0.10503569  0.66664345  0.77177292
   0.33823842  0.44411703  0.56157774
   0.89446264  0.56102598  0.22821301
   0.77252285  0.77230260  0.10473611
   0.66678969  0.56386688  0.44120445
   0.43908378  0.33495589  0.43962010
   0.10524158  0.66634941  0.56184957
   0.22822998  0.00077077  0.89485246
   0.66643911  0.56141114  0.22857931
   0.56315461  0.66558766  0.76697636
   0.00019967  0.22873945  0.89498031
   0.77143491  0.77163556  0.89358771
   0.66680069  0.10545737  0.22693391
   0.22848492  0.22879165  0.89479591
   0.43822391  0.33351009  0.22900445
   0.77268074  0.00008396  0.89445744
   0.55898825  0.90325930  0.56851799
   0.43833604  0.10581704  0.22825580
   0.43884377  0.10708145  0.43826130
Direct configuration=     3
   0.56074862  0.66090313  0.56542830
   0.61329653  0.79946946  0.44009198
   0.66046496  0.88902439  0.43830277
   0.66037118  0.75314983  0.43946611
   0.52257642  0.75185794  0.43443339
   0.01856479  0.33406827  0.83405204
   0.21314121  0.42673162  0.53520962
   0.54696163  0.09362715  0.20262190
   0.88051371  0.76065257  0.86695595
   0.45259692  0.54699502  0.79934352
   0.12057556  0.87954997  0.13140368
   0.09354065  0.54714260  0.79755132
   0.42909934  0.21406405  0.46638415
   0.76011763  0.88018184  0.13320285
   0.21415299  0.78729989  0.53375499
   0.90021208  0.09908271  0.12392386
   0.23936847  0.11988380  0.86783253
   0.86356000  0.43129723  0.45674831
   0.43340520  0.86402032  0.54348972
   0.98225000  0.31530036  0.16697769
   0.64809746  0.99938589  0.50015922
   0.00057094  0.64729457  0.49976615
   0.33296195  0.31450322  0.16702674
   0.98100263  0.66644419  0.16658966
   0.35231643  0.35112363  0.50023950
   0.68377231  0.01787812  0.16581369
   0.66663827  0.98196382  0.83338148
   0.00084737  0.35317226  0.49912948
   0.78718156  0.21237563  0.46566081
   0.33381051  0.01849511  0.16673339
   0.90603766  0.45284555  0.20052802
   0.31478657  0.33365670  0.83432453
   0.45352316  0.90708964  0.79844864
   0.07333869  0.66879337  0.66651296
   0.66873825  0.07219998  0.33330362
   0.99842756  0.73872385  0.00002858
   0.59481063  0.92852595  0.66553741
   0.92782534  0.59329566  0.33309546
   0.26041880  0.26019030  0.00051125
   0.40493943  0.33163715  0.33356095
   0.78768293  0.57360544  0.46489496
   0.73957983  0.99883564 -0.00007886
   0.57665106  0.79357265  0.53918910
   0.59586623  0.66723840  0.67210996
   0.26176399  0.00092320 -0.00006821
   0.07157852  0.40444276  0.66665220
   0.40507801  0.07332021  0.33364694
   0.33355989  0.40519060  0.66748702
   0.74135355  0.74163778  0.00013880
   0.54627993  0.45357575  0.20245393
   0.87999254  0.12061355  0.86801380
   0.33306677  0.92705316  0.66634505
   0.56803488  0.43308056  0.45553767
   0.66794325  0.59634039  0.33276951
   0.92700086  0.33355039  0.33311312
   0.35345836  0.00055488  0.50035868
   0.31514926  0.98216928  0.83296720
   0.90176719  0.80305092  0.12428836
   0.23463794  0.76616928  0.79061494
   0.11931744  0.23873223  0.13247333
   0.56916226  0.13532258  0.45512561
   0.23396783  0.46880338  0.78959398
   0.19788058  0.09837350  0.12375118
  -0.00000955  0.26078755  0.00048393
   0.09936067  0.90097964  0.87712662
   0.80296080  0.90208115  0.87527789
   0.42745451  0.56322618  0.54308173
   0.53140457  0.76706796  0.78944349
   0.76517481  0.53068589  0.21048125
   0.13679498  0.56865388  0.54499660
   0.46901262  0.23453757  0.20963155
   0.65328653  0.64643588  0.49764040
   0.76582766  0.23377938  0.20920025
   0.66682165  0.68582051  0.83483363
   0.01854909  0.68505044  0.83353674
   0.09883373  0.19835502  0.87685232
   0.68536146  0.66625152  0.16570454
   0.56134599  0.89460786  0.77248821
   0.99948497  0.77174070  0.89472518
   0.89505200  0.33370523  0.22781830
   0.77155903  0.99942528  0.10498548
   0.10653356  0.43869997  0.56194606
   0.33415615  0.43927399  0.77166982
   0.00002385  0.77193127  0.10504162
   0.33342785  0.89506509  0.77205670
   0.22838609  0.99976145  0.10492626
   0.22778908  0.22763865  0.10543162
   0.10526194  0.43866576  0.77146424
   0.66815923  0.10660324  0.43745439
   0.00018838  0.22812264  0.10538693
   0.89530823  0.33382184  0.43838876
   0.33268849  0.89483994  0.56168160
   0.89437356  0.56106942  0.43837390
   0.10524363  0.66692324  0.77169449
   0.33545263  0.44055324  0.56189393
   0.89450204  0.56093901  0.22813511
   0.77254926  0.77255378  0.10511264
   0.66732680  0.56312294  0.43930081
   0.43905313  0.33393709  0.43905567
   0.10572070  0.66697202  0.56172521
   0.22837023  0.00065809  0.89486587
   0.66652184  0.56156347  0.22844383
   0.56212575  0.66638190  0.77009111
   0.00000076  0.22859944  0.89512176
   0.77226090  0.77236665  0.89415677
   0.66677606  0.10513389  0.22759764
   0.22819494  0.22836981  0.89505352
   0.43830249  0.33334967  0.22877535
   0.77248573  0.00028575  0.89453296
   0.56074670  0.89799706  0.56431827
   0.43853684  0.10561949  0.22841181
   0.43926290  0.10642567  0.43837708
Direct configuration=     4
   0.55997326  0.65145484  0.56942222
   0.60898239  0.79902127  0.44233786
   0.66245621  0.89138385  0.43059660
   0.65982684  0.75602212  0.43608787
   0.52038131  0.75036721  0.41734888
   0.01849406  0.33420708  0.83398075
   0.21306333  0.42559551  0.53517477
   0.54662707  0.09348365  0.20277619
   0.88044783  0.76079000  0.86704753
   0.45303611  0.54782020  0.80010715
   0.12060216  0.87953802  0.13146504
   0.09347939  0.54702610  0.79758381
   0.42912638  0.21466521  0.46634223
   0.76006143  0.88008740  0.13341812
   0.21389054  0.78674355  0.53365470
   0.90030233  0.09920959  0.12400376
   0.23937249  0.11996823  0.86786581
   0.86351554  0.43135213  0.45672553
   0.43093185  0.86322766  0.54294954
   0.98225385  0.31521671  0.16694847
   0.64862815  0.00199217  0.50069340
   0.00071262  0.64742710  0.49966675
   0.33298187  0.31448565  0.16701426
   0.98108306  0.66647898  0.16656540
   0.35127886  0.35063858  0.50084496
   0.68384130  0.01760193  0.16588443
   0.66690035  0.98243172  0.83317736
   0.00099865  0.35324037  0.49943151
   0.78829246  0.21318170  0.46577996
   0.33370854  0.01834055  0.16668196
   0.90603434  0.45291058  0.20049664
   0.31492098  0.33408979  0.83408620
   0.45367007  0.90747630  0.79799740
   0.07346525  0.66900664  0.66661437
   0.66860405  0.07153708  0.33303548
   0.99851587  0.73871931 -0.00012900
   0.59528685  0.92886627  0.66974702
   0.92807597  0.59330827  0.33315237
   0.26036049  0.26009833  0.00040004
   0.40488241  0.33140010  0.33382166
   0.78797040  0.57301291  0.46448804
   0.73941094  0.99889114 -0.00031080
   0.58601491  0.79973707  0.54641797
   0.60061267  0.66869773  0.67496804
   0.26187131  0.00090322 -0.00016813
   0.07122916  0.40448094  0.66670501
   0.40521322  0.07307058  0.33361150
   0.33298421  0.40447207  0.66691659
   0.74151967  0.74181057 -0.00014968
   0.54609463  0.45336404  0.20227031
   0.87993054  0.12067335  0.86803527
   0.33354177  0.92711797  0.66661373
   0.56812687  0.43239347  0.45516355
   0.66803413  0.59638120  0.33303293
   0.92680031  0.33327164  0.33307528
   0.35395909  0.00060026  0.50019245
   0.31519099  0.98229933  0.83298414
   0.90188833  0.80314959  0.12437981
   0.23454576  0.76606503  0.79048419
   0.11939888  0.23871940  0.13255736
   0.56801632  0.13489200  0.45538106
   0.23430908  0.46876620  0.78973607
   0.19785728  0.09841510  0.12379070
  -0.00006916  0.26078057  0.00039213
   0.09936777  0.90089753  0.87713777
   0.80312155  0.90196559  0.87539496
   0.42345892  0.56411489  0.54014331
   0.53114474  0.76579925  0.78972218
   0.76525197  0.53060524  0.21033101
   0.13680778  0.56858772  0.54492564
   0.46909574  0.23470965  0.20960419
   0.65787246  0.64815193  0.50046520
   0.76604595  0.23399404  0.20937458
   0.66577967  0.68545626  0.83534169
   0.01860737  0.68509738  0.83354906
   0.09883202  0.19817947  0.87695726
   0.68537309  0.66639779  0.16575418
   0.56137514  0.89466505  0.77298394
   0.99949167  0.77175034  0.89482807
   0.89510323  0.33378946  0.22786786
   0.77158576  0.99939760  0.10492955
   0.10631450  0.43842424  0.56197439
   0.33400624  0.43909203  0.77178532
  -0.00003271  0.77189565  0.10508617
   0.33336243  0.89504494  0.77217898
   0.22834509  0.99974431  0.10494646
   0.22779648  0.22766732  0.10544498
   0.10518853  0.43853183  0.77140260
   0.66819937  0.10744915  0.43738502
   0.00018926  0.22813702  0.10535911
   0.89529441  0.33386561  0.43848140
   0.33235420  0.89475619  0.56160448
   0.89425619  0.56090742  0.43826781
   0.10511723  0.66675367  0.77171129
   0.32982377  0.43414472  0.56232245
   0.89441197  0.56097351  0.22819998
   0.77252496  0.77246029  0.10508808
   0.66930471  0.55640585  0.43512592
   0.43904852  0.33390886  0.43901292
   0.10550217  0.66671712  0.56167566
   0.22833648  0.00069307  0.89495586
   0.66660649  0.56149512  0.22844792
   0.56076039  0.66595525  0.77670495
   0.00003916  0.22864890  0.89510024
   0.77228607  0.77237075  0.89438092
   0.66684727  0.10519108  0.22759145
   0.22816231  0.22839315  0.89505625
   0.43843355  0.33348836  0.22873493
   0.77256092  0.00031798  0.89457982
   0.55956716  0.90889115  0.56779760
   0.43854630  0.10568347  0.22837521
   0.43935571  0.10654605  0.43824318
Direct configuration=     5
   0.56021901  0.65444950  0.56815634
   0.61034977  0.79916333  0.44162603
   0.66182508  0.89063601  0.43303909
   0.65999937  0.75511174  0.43715861
   0.52107706  0.75083970  0.42276386
   0.01851648  0.33416309  0.83400335
   0.21308802  0.42595560  0.53518582
   0.54673311  0.09352914  0.20272729
   0.88046871  0.76074644  0.86701850
   0.45289691  0.54755866  0.79986511
   0.12059373  0.87954181  0.13144559
   0.09349881  0.54706303  0.79757351
   0.42911781  0.21447467  0.46635552
   0.76007924  0.88011733  0.13334989
   0.21397372  0.78691988  0.53368649
   0.90027373  0.09916938  0.12397844
   0.23937122  0.11994147  0.86785526
   0.86352963  0.43133473  0.45673275
   0.43171578  0.86347890  0.54312075
   0.98225263  0.31524322  0.16695773
   0.64845995  0.00116610  0.50052409
   0.00066772  0.64738509  0.49969825
   0.33297556  0.31449122  0.16701822
   0.98105757  0.66646795  0.16657309
   0.35160772  0.35079232  0.50065306
   0.68381943  0.01768947  0.16586201
   0.66681728  0.98228342  0.83324206
   0.00095070  0.35321879  0.49933578
   0.78794036  0.21292622  0.46574220
   0.33374086  0.01838954  0.16669826
   0.90603539  0.45288997  0.20050659
   0.31487838  0.33395252  0.83416174
   0.45362351  0.90735375  0.79814042
   0.07342513  0.66893904  0.66658223
   0.66864658  0.07174719  0.33312047
   0.99848788  0.73872075 -0.00007905
   0.59513591  0.92875841  0.66841278
   0.92799653  0.59330427  0.33313433
   0.26037897  0.26012748  0.00043529
   0.40490048  0.33147523  0.33373902
   0.78787928  0.57320071  0.46461702
   0.73946447  0.99887355 -0.00023728
   0.58304701  0.79778324  0.54412677
   0.59910827  0.66823519  0.67406216
   0.26183730  0.00090955 -0.00013646
   0.07133989  0.40446884  0.66668827
   0.40517037  0.07314970  0.33362273
   0.33316667  0.40469981  0.66709739
   0.74146701  0.74175580 -0.00005825
   0.54615336  0.45343114  0.20232851
   0.87995019  0.12065439  0.86802846
   0.33339122  0.92709743  0.66652857
   0.56809771  0.43261124  0.45528213
   0.66800532  0.59636827  0.33294944
   0.92686388  0.33335999  0.33308727
   0.35380038  0.00058587  0.50024514
   0.31517776  0.98225811  0.83297877
   0.90184993  0.80311832  0.12435083
   0.23457498  0.76609807  0.79052563
   0.11937307  0.23872346  0.13253073
   0.56837953  0.13502847  0.45530010
   0.23420092  0.46877798  0.78969104
   0.19786467  0.09840191  0.12377817
  -0.00005027  0.26078278  0.00042122
   0.09936552  0.90092355  0.87713424
   0.80307060  0.90200222  0.87535786
   0.42472533  0.56383321  0.54107465
   0.53122710  0.76620137  0.78963384
   0.76522752  0.53063080  0.21037863
   0.13680372  0.56860869  0.54494813
   0.46906939  0.23465511  0.20961286
   0.65641894  0.64760802  0.49956987
   0.76597676  0.23392600  0.20931933
   0.66610993  0.68557171  0.83518066
   0.01858890  0.68508250  0.83354515
   0.09883256  0.19823511  0.87692400
   0.68536941  0.66635143  0.16573845
   0.56136590  0.89464692  0.77282682
   0.99948954  0.77174728  0.89479546
   0.89508699  0.33376276  0.22785215
   0.77157729  0.99940637  0.10494728
   0.10638393  0.43851164  0.56196541
   0.33405375  0.43914970  0.77174871
  -0.00001478  0.77190694  0.10507205
   0.33338316  0.89505133  0.77214022
   0.22835809  0.99974974  0.10494006
   0.22779414  0.22765823  0.10544075
   0.10521179  0.43857428  0.77142214
   0.66818665  0.10718104  0.43740700
   0.00018898  0.22813246  0.10536793
   0.89529879  0.33385174  0.43845204
   0.33246015  0.89478273  0.56162892
   0.89429339  0.56095877  0.43830144
   0.10515729  0.66680742  0.77170596
   0.33160785  0.43617591  0.56218663
   0.89444052  0.56096258  0.22817942
   0.77253266  0.77248992  0.10509586
   0.66867781  0.55853484  0.43644916
   0.43904998  0.33391781  0.43902647
   0.10557144  0.66679791  0.56169137
   0.22834718  0.00068199  0.89492734
   0.66657966  0.56151678  0.22844662
   0.56119314  0.66609047  0.77460867
   0.00002699  0.22863322  0.89510706
   0.77227809  0.77236945  0.89430988
   0.66682470  0.10517295  0.22759341
   0.22817265  0.22838575  0.89505538
   0.43839201  0.33344440  0.22874774
   0.77253709  0.00030777  0.89456497
   0.55994102  0.90543824  0.56669482
   0.43854330  0.10566319  0.22838681
   0.43932629  0.10650790  0.43828562
Direct configuration=     6
   0.56101502  0.65234389  0.56804076
   0.60795378  0.80024373  0.44596665
   0.66106004  0.88952025  0.42669590
   0.65780224  0.75805638  0.43480299
   0.52185708  0.75148917  0.41153396
   0.01850902  0.33424864  0.83395604
   0.21046148  0.42389180  0.53498974
   0.54661925  0.09347157  0.20282692
   0.88027326  0.76080291  0.86709339
   0.45068212  0.54563614  0.80113865
   0.12053930  0.87945886  0.13146708
   0.09347261  0.54672554  0.79760737
   0.42910661  0.21494420  0.46635694
   0.76006999  0.87990356  0.13339832
   0.21347234  0.78629639  0.53363353
   0.90034608  0.09927870  0.12398941
   0.23940518  0.12019822  0.86786698
   0.86344909  0.43150541  0.45671873
   0.42852923  0.86331892  0.54283424
   0.98225136  0.31523343  0.16694734
   0.64935598  0.00602392  0.50086830
   0.00028169  0.64719521  0.49936995
   0.33311315  0.31454284  0.16707608
   0.98101789  0.66636330  0.16662293
   0.35119586  0.34892267  0.50032934
   0.68391513  0.01757513  0.16587723
   0.66753607  0.98282791  0.83360846
   0.00105918  0.35329533  0.49956844
   0.78860656  0.21359656  0.46577975
   0.33367475  0.01832985  0.16666442
   0.90601791  0.45309253  0.20049689
   0.31499501  0.33417656  0.83402005
   0.45340193  0.90759110  0.79798097
   0.07349278  0.66906530  0.66662740
   0.66853125  0.07153476  0.33298584
   0.99855462  0.73869964  0.00000426
   0.59590013  0.93110521  0.67252013
   0.92814587  0.59328129  0.33315319
   0.26037890  0.26010710  0.00031162
   0.40491206  0.33138280  0.33398329
   0.78956347  0.57205646  0.46433265
   0.73933047  0.99891331 -0.00025228
   0.58904673  0.80052907  0.54450370
   0.60226493  0.66857833  0.67837418
   0.26192443  0.00091331 -0.00008697
   0.07112504  0.40450156  0.66668467
   0.40527717  0.07302646  0.33349447
   0.33262351  0.40370705  0.66792163
   0.74155707  0.74182126 -0.00001489
   0.54636989  0.45360114  0.20220952
   0.88012148  0.12089780  0.86806972
   0.33381000  0.92723980  0.66670967
   0.56693618  0.42974944  0.45496276
   0.66813774  0.59590973  0.33195250
   0.92673484  0.33320278  0.33316621
   0.35423147  0.00096900  0.49999898
   0.31510156  0.98246615  0.83309986
   0.90184782  0.80314076  0.12439271
   0.23435978  0.76587424  0.79043982
   0.11945200  0.23874070  0.13257184
   0.56772992  0.13511086  0.45553605
   0.23449002  0.46871139  0.78972393
   0.19787890  0.09847852  0.12379076
  -0.00005274  0.26081481  0.00030882
   0.09938419  0.90087973  0.87715856
   0.80315352  0.90177131  0.87548769
   0.42181785  0.56357487  0.53957404
   0.53062075  0.76610634  0.79060591
   0.76503858  0.53048987  0.21027846
   0.13676921  0.56796509  0.54492113
   0.46914703  0.23494455  0.20962337
   0.65906072  0.64464980  0.50031149
   0.76610658  0.23413504  0.20944269
   0.66703345  0.68560340  0.83774519
   0.01857786  0.68513946  0.83362428
   0.09887066  0.19814198  0.87699044
   0.68526406  0.66611396  0.16594039
   0.56094347  0.89400023  0.77454495
   0.99953050  0.77176336  0.89472603
   0.89517743  0.33373517  0.22788678
   0.77151700  0.99931830  0.10500312
   0.10607063  0.43857958  0.56191512
   0.33411065  0.43931345  0.77186816
   0.00007346  0.77198709  0.10503779
   0.33347893  0.89500291  0.77221357
   0.22835342  0.99971175  0.10493058
   0.22767598  0.22755956  0.10547385
   0.10511117  0.43865534  0.77148687
   0.66850804  0.10747782  0.43722572
   0.00014664  0.22806061  0.10539486
   0.89558095  0.33387698  0.43837026
   0.33136275  0.89447544  0.56160709
   0.89589044  0.56099501  0.43815487
   0.10520258  0.66689995  0.77166798
   0.33041886  0.43567700  0.56176083
   0.89479112  0.56105891  0.22812044
   0.77265185  0.77280288  0.10520225
   0.66918261  0.56069814  0.43733737
   0.43797254  0.33314566  0.43898650
   0.10570500  0.66689685  0.56173342
   0.22837115  0.00057978  0.89488913
   0.66658499  0.56167357  0.22798240
   0.56116867  0.66686748  0.77606541
  -0.00015055  0.22853750  0.89508829
   0.77269335  0.77270124  0.89442599
   0.66679167  0.10484315  0.22782074
   0.22811222  0.22828683  0.89507076
   0.43817587  0.33321441  0.22867927
   0.77235823  0.00030880  0.89435394
   0.56177874  0.90623896  0.56678952
   0.43843908  0.10549503  0.22839783
   0.43889438  0.10630554  0.43817921
Direct configuration=     7
   0.56072664  0.65310672  0.56808263
   0.60882181  0.79985232  0.44439412
   0.66133720  0.88992447  0.42899393
   0.65859822  0.75698959  0.43565639
   0.52157449  0.75125388  0.41560235
   0.01851172  0.33421764  0.83397318
   0.21141303  0.42463948  0.53506077
   0.54666050  0.09349243  0.20279083
   0.88034406  0.76078245  0.86706626
   0.45148450  0.54633263  0.80067727
   0.12055902  0.87948891  0.13145929
   0.09348210  0.54684780  0.79759510
   0.42911067  0.21477409  0.46635643
   0.76007334  0.87998101  0.13338078
   0.21365398  0.78652227  0.53365272
   0.90031986  0.09923909  0.12398543
   0.23939288  0.12010520  0.86786274
   0.86347827  0.43144358  0.45672381
   0.42968366  0.86337688  0.54293804
   0.98225182  0.31523698  0.16695111
   0.64903136  0.00426402  0.50074360
   0.00042154  0.64726400  0.49948889
   0.33306330  0.31452414  0.16705512
   0.98103226  0.66640121  0.16660487
   0.35134507  0.34960001  0.50044662
   0.68388046  0.01761655  0.16587172
   0.66727566  0.98263065  0.83347572
   0.00101988  0.35326760  0.49948415
   0.78836521  0.21335370  0.46576615
   0.33369870  0.01835147  0.16667668
   0.90602424  0.45301915  0.20050040
   0.31495276  0.33409539  0.83407138
   0.45348220  0.90750511  0.79803874
   0.07346827  0.66901956  0.66661104
   0.66857303  0.07161172  0.33303461
   0.99853044  0.73870729 -0.00002592
   0.59562326  0.93025501  0.67103211
   0.92809177  0.59328961  0.33314636
   0.26037893  0.26011448  0.00035642
   0.40490786  0.33141629  0.33389480
   0.78895332  0.57247100  0.46443567
   0.73937902  0.99889891 -0.00024685
   0.58687314  0.79953431  0.54436714
   0.60112133  0.66845401  0.67681201
   0.26189286  0.00091195 -0.00010490
   0.07120288  0.40448971  0.66668597
   0.40523848  0.07307111  0.33354094
   0.33282029  0.40406671  0.66762302
   0.74152445  0.74179755 -0.00003060
   0.54629145  0.45353956  0.20225263
   0.88005942  0.12080962  0.86805478
   0.33365828  0.92718822  0.66664406
   0.56735698  0.43078622  0.45507846
   0.66808977  0.59607585  0.33231367
   0.92678159  0.33325973  0.33313761
   0.35407530  0.00083020  0.50008816
   0.31512917  0.98239078  0.83305599
   0.90184858  0.80313263  0.12437753
   0.23443774  0.76595533  0.79047091
   0.11942340  0.23873446  0.13255695
   0.56796527  0.13508101  0.45545057
   0.23438528  0.46873551  0.78971202
   0.19787375  0.09845077  0.12378620
  -0.00005185  0.26080321  0.00034954
   0.09937743  0.90089560  0.87714975
   0.80312348  0.90185496  0.87544065
   0.42287118  0.56366846  0.54011768
   0.53084042  0.76614077  0.79025375
   0.76510703  0.53054093  0.21031475
   0.13678172  0.56819826  0.54493091
   0.46911890  0.23483969  0.20961956
   0.65810365  0.64572151  0.50004281
   0.76605955  0.23405931  0.20939800
   0.66669887  0.68559192  0.83681611
   0.01858186  0.68511883  0.83359561
   0.09885686  0.19817572  0.87696637
   0.68530222  0.66619999  0.16586723
   0.56109651  0.89423451  0.77392250
   0.99951566  0.77175754  0.89475118
   0.89514467  0.33374517  0.22787424
   0.77153884  0.99935021  0.10498289
   0.10618414  0.43855497  0.56193334
   0.33409003  0.43925413  0.77182489
   0.00004149  0.77195805  0.10505020
   0.33344424  0.89502045  0.77218700
   0.22835511  0.99972552  0.10493401
   0.22771879  0.22759531  0.10546186
   0.10514763  0.43862597  0.77146342
   0.66839161  0.10737030  0.43729140
   0.00016198  0.22808664  0.10538510
   0.89547873  0.33386784  0.43839989
   0.33176032  0.89458677  0.56161500
   0.89531186  0.56098188  0.43820797
   0.10518617  0.66686642  0.77168174
   0.33084961  0.43585775  0.56191509
   0.89466410  0.56102401  0.22814181
   0.77260867  0.77268950  0.10516371
   0.66899973  0.55991442  0.43701559
   0.43836287  0.33342540  0.43900098
   0.10565661  0.66686100  0.56171819
   0.22836247  0.00061681  0.89490297
   0.66658306  0.56161677  0.22815058
   0.56117753  0.66658598  0.77553766
  -0.00008623  0.22857218  0.89509509
   0.77254291  0.77258104  0.89438393
   0.66680364  0.10496263  0.22773838